 vasp.6.2.1 16May21 (build Nov 06 2021 14:46:37) complex                        
  
 executed on             LinuxIFC date 2025.04.16  16:52:31
 running on  112 total cores
 distrk:  each k-point on  112 cores,    1 groups
 distr:  one band on NCORE=  28 cores,    4 groups


--------------------------------------------------------------------------------------------------------


 INCAR:
   ALGO = Conjugate
   NPAR = 4
   ISMEAR = 0
   SIGMA = 0.01
   PREC = Accurate
   EDIFF = 1E-7
   ENCUT = 1000
   ISIF = 0
   GGA = MK
   PARAM1 = 0.1234
   PARAM2 = 1.0000
   LUSE_VDW = .TRUE.
   AGGAC = 0.0000
   LASPH = .TRUE.
   SYMPREC = 1E-7

 POTCAR:    PAW_PBE C_h 06Feb2004                 
 POTCAR:    PAW_PBE O_h 06Feb2004                 
 -----------------------------------------------------------------------------
|                                                                             |
|           W    W    AA    RRRRR   N    N  II  N    N   GGGG   !!!           |
|           W    W   A  A   R    R  NN   N  II  NN   N  G    G  !!!           |
|           W    W  A    A  R    R  N N  N  II  N N  N  G       !!!           |
|           W WW W  AAAAAA  RRRRR   N  N N  II  N  N N  G  GGG   !            |
|           WW  WW  A    A  R   R   N   NN  II  N   NN  G    G                |
|           W    W  A    A  R    R  N    N  II  N    N   GGGG   !!!           |
|                                                                             |
|     For optimal performance we recommend to set                             |
|       NCORE = 2 up to number-of-cores-per-socket                            |
|     NCORE specifies how many cores store one orbital (NPAR=cpu/NCORE).      |
|     This setting can greatly improve the performance of VASP for DFT.       |
|     The default, NCORE=1 might be grossly inefficient on modern             |
|     multi-core architectures or massively parallel machines. Do your        |
|     own testing! More info at https://www.vasp.at/wiki/index.php/NCORE      |
|     Unfortunately you need to use the default for GW and RPA                |
|     calculations (for HF NCORE is supported but not extensively tested      |
|     yet).                                                                   |
|                                                                             |
 -----------------------------------------------------------------------------

 -----------------------------------------------------------------------------
|                                                                             |
|               ----> ADVICE to this user running VASP <----                  |
|                                                                             |
|     You have switched on vdW-DFT.                                           |
|     This routine was written and supplied by Jiri Klimes. We recommend      |
|     that you carefully read and cite the following publications:            |
|       J. Klimes, D.R. Bowler, A. Michelides                                 |
|          J. Phys.: Cond Matt. 22 022201 (2010)                              |
|       J. Klimes, D.R. Bowler, A. Michelides                                 |
|          Phys. Rev. B. 83, 195131 (2011)                                    |
|     and references therein.                                                 |
|                                                                             |
 -----------------------------------------------------------------------------

 POTCAR:    PAW_PBE C_h 06Feb2004                 
   VRHFIN =C: s2p2                                                                                  
   LEXCH  = PE                                                                                      
   EATOM  =   147.1560 eV,   10.8157 Ry                                                             
                                                                                                    
   TITEL  = PAW_PBE C_h 06Feb2004                                                                   
   LULTRA =        F    use ultrasoft PP ?                                                          
   IUNSCR =        1    unscreen: 0-lin 1-nonlin 2-no                                               
   RPACOR =    0.800    partial core radius                                                         
   POMASS =   12.011; ZVAL   =    4.000    mass and valenz                                          
   RCORE  =    1.100    outmost cutoff radius                                                       
   RWIGS  =    1.630; RWIGS  =    0.863    wigner-seitz radius (au A)                               
   ENMAX  =  700.000; ENMIN  =  500.000 eV                                                          
   ICORE  =        2    local potential                                                             
   LCOR   =        T    correct aug charges                                                         
   LPAW   =        T    paw PP                                                                      
   EAUG   =  946.768                                                                                
   DEXC   =    0.000                                                                                
   RMAX   =    1.128    core radius for proj-oper                                                   
   RAUG   =    1.300    factor for augmentation sphere                                              
   RDEP   =    1.162    radius for radial grids                                                     
   RDEPT  =    1.088    core radius for aug-charge                                                  
                                                                                                    
   Atomic configuration                                                                             
    4 entries                                                                                       
     n  l   j            E        occ.                                                              
     1  0  0.50      -273.3789   2.0000                                                             
     2  0  0.50       -13.7508   2.0000                                                             
     2  1  0.50        -5.2854   2.0000                                                             
     3  2  1.50        -5.4423   0.0000                                                             
   Description                                                                                      
     l       E           TYP  RCUT    TYP  RCUT                                                     
     0    -13.7508458     23  1.100                                                                 
     0     -8.2022199     23  1.100                                                                 
     1     -5.2854383     23  1.100                                                                 
     1      1.1560700     23  1.100                                                                 
     2     -5.4423304      7  1.100                                                                 
  local pseudopotential read in
  partial core-charges read in
  partial kinetic energy density read in
  atomic valenz-charges read in
  non local Contribution for L=           0  read in
    real space projection operators read in
  non local Contribution for L=           0  read in
    real space projection operators read in
  non local Contribution for L=           1  read in
    real space projection operators read in
  non local Contribution for L=           1  read in
    real space projection operators read in
    PAW grid and wavefunctions read in
 
   number of l-projection  operators is LMAX  =           4
   number of lm-projection operators is LMMAX =           8
 
 POTCAR:    PAW_PBE O_h 06Feb2004                 
   VRHFIN =O: s2p4                                                                                  
   LEXCH  = PE                                                                                      
   EATOM  =   432.3788 eV,   31.7789 Ry                                                             
                                                                                                    
   TITEL  = PAW_PBE O_h 06Feb2004                                                                   
   LULTRA =        F    use ultrasoft PP ?                                                          
   IUNSCR =        1    unscreen: 0-lin 1-nonlin 2-no                                               
   RPACOR =    0.800    partial core radius                                                         
   POMASS =   16.000; ZVAL   =    6.000    mass and valenz                                          
   RCORE  =    1.100    outmost cutoff radius                                                       
   RWIGS  =    1.400; RWIGS  =    0.741    wigner-seitz radius (au A)                               
   ENMAX  =  700.000; ENMIN  =  500.000 eV                                                          
   ICORE  =        2    local potential                                                             
   LCOR   =        T    correct aug charges                                                         
   LPAW   =        T    paw PP                                                                      
   EAUG   =  888.804                                                                                
   DEXC   =    0.000                                                                                
   RMAX   =    1.128    core radius for proj-oper                                                   
   RAUG   =    1.300    factor for augmentation sphere                                              
   RDEP   =    1.125    radius for radial grids                                                     
   RDEPT  =    1.088    core radius for aug-charge                                                  
                                                                                                    
   Atomic configuration                                                                             
    4 entries                                                                                       
     n  l   j            E        occ.                                                              
     1  0  0.50      -514.6923   2.0000                                                             
     2  0  0.50       -23.9615   2.0000                                                             
     2  1  0.50        -9.0305   4.0000                                                             
     3  2  1.50        -9.5241   0.0000                                                             
   Description                                                                                      
     l       E           TYP  RCUT    TYP  RCUT                                                     
     0    -23.9615319     23  1.100                                                                 
     0    -25.3221145     23  1.100                                                                 
     1     -9.0304911     23  1.100                                                                 
     1     -5.4802209     23  1.100                                                                 
     2     -9.5240782      7  1.100                                                                 
  local pseudopotential read in
  partial core-charges read in
  partial kinetic energy density read in
  atomic valenz-charges read in
  non local Contribution for L=           0  read in
    real space projection operators read in
  non local Contribution for L=           0  read in
    real space projection operators read in
  non local Contribution for L=           1  read in
    real space projection operators read in
  non local Contribution for L=           1  read in
    real space projection operators read in
    PAW grid and wavefunctions read in
 
   number of l-projection  operators is LMAX  =           4
   number of lm-projection operators is LMMAX =           8
 
 -----------------------------------------------------------------------------
|                                                                             |
|               ----> ADVICE to this user running VASP <----                  |
|                                                                             |
|     You have a (more or less) 'large supercell' and for larger cells it     |
|     might be more efficient to use real-space projection operators.         |
|     Therefore, try LREAL= Auto in the INCAR file.                           |
|     Mind: For very accurate calculation, you might also keep the            |
|     reciprocal projection scheme (i.e. LREAL=.FALSE.).                      |
|                                                                             |
 -----------------------------------------------------------------------------

 -----------------------------------------------------------------------------
|                                                                             |
|               ----> ADVICE to this user running VASP <----                  |
|                                                                             |
|     You enforced a specific xc type in the INCAR file but a different       |
|     type was found in the POTCAR file.                                      |
|     I HOPE YOU KNOW WHAT YOU ARE DOING!                                     |
|                                                                             |
 -----------------------------------------------------------------------------

  PAW_PBE C_h 06Feb2004                 :
 energy of atom  1       EATOM= -147.1560
 kinetic energy error for atom=    0.0031 (will be added to EATOM!!)
  PAW_PBE O_h 06Feb2004                 :
 energy of atom  2       EATOM= -432.3788
 kinetic energy error for atom=    0.0171 (will be added to EATOM!!)
 
 
 POSCAR:  C  O
  positions in cartesian coordinates
  No initial velocities read in
 exchange correlation table for  LEXCH =       43
   RHO(1)=    0.500       N(1)  =     2000
   RHO(2)=  100.500       N(2)  =     4000
 


--------------------------------------------------------------------------------------------------------


 ion  position               nearest neighbor table
   1  0.972  0.000  0.001-  50 1.42   2 1.42  42 1.42
   2  0.039  0.134  0.000-   5 1.42   7 1.42   1 1.42
   3  0.172  0.000  0.000-  42 1.42  44 1.42   4 1.42
   4  0.239  0.134  0.000-   7 1.42   3 1.42  23 1.42
   5  0.972  0.200  0.000-   6 1.42   2 1.42  34 1.42
   6  0.039  0.334  0.000-   5 1.42  21 1.42  11 1.42
   7  0.172  0.200  0.000-   8 1.42   2 1.42   4 1.42
   8  0.239  0.334  0.000-  13 1.42   7 1.42  21 1.42
   9  0.372  0.000  0.000-  10 1.42  44 1.42  46 1.42
  10  0.439  0.134  0.000-  27 1.42   9 1.42  23 1.42
  11  0.972  0.400  0.001-  12 1.42  36 1.42   6 1.42
  12  0.039  0.534  0.001-  25 1.42  11 1.42  17 1.42
  13  0.372  0.400  0.000-   8 1.42  14 1.42  24 1.42
  14  0.439  0.534  0.000-  13 1.42  29 1.42  19 1.42
  15  0.572  0.000  0.001-  46 1.42  16 1.42  48 1.42
  16  0.639  0.134  0.001-  15 1.42  35 1.42  27 1.42
  17  0.972  0.600  0.001-  38 1.42  18 1.42  12 1.42
  18  0.039  0.734  0.001-  43 1.42  41 1.42  17 1.42
  19  0.572  0.600  0.000-  14 1.42  20 1.42  32 1.42
  20  0.639  0.734  0.001-  49 1.42  19 1.42  47 1.42
  21  0.172  0.400  0.000-  22 1.42   8 1.42   6 1.42
  22  0.239  0.534  0.000-  21 1.42  29 1.42  25 1.42
  23  0.372  0.200  0.000-  10 1.42   4 1.42  24 1.42
  24  0.439  0.334  0.000-  13 1.42  31 1.42  23 1.42
  25  0.172  0.600  0.001-  26 1.42  12 1.42  22 1.42
  26  0.239  0.734  0.001-  25 1.42  45 1.42  43 1.42
  27  0.572  0.200  0.000-  10 1.42  28 1.42  16 1.42
  28  0.639  0.334  0.000-  27 1.42  37 1.42  31 1.42
  29  0.372  0.600  0.000-  22 1.42  14 1.42  30 1.42
  30  0.439  0.734  0.000-  47 1.42  29 1.42  45 1.42
  31  0.572  0.400  0.000-  32 1.42  28 1.42  24 1.42
  32  0.639  0.534  0.000-  31 1.42  39 1.42  19 1.42
  33  0.772  0.000  0.001-  34 1.42  48 1.42  50 1.42
  34  0.839  0.134  0.001-  33 1.42   5 1.42  35 1.42
  35  0.772  0.200  0.001-  36 1.42  16 1.42  34 1.42
  36  0.839  0.334  0.001-  35 1.42  11 1.42  37 1.42
  37  0.772  0.400  0.001-  28 1.42  38 1.42  36 1.42
  38  0.839  0.534  0.001-  17 1.42  37 1.42  39 1.42
  39  0.772  0.600  0.001-  40 1.42  38 1.42  32 1.42
  40  0.839  0.734  0.001-  39 1.42  49 1.42  41 1.42
  41  0.972  0.800  0.001-  18 1.42  42 1.42  40 1.42
  42  0.039  0.934  0.001-   3 1.42  41 1.42   1 1.42
  43  0.172  0.800  0.001-  18 1.42  44 1.42  26 1.42
  44  0.239  0.934  0.001-   9 1.42  43 1.42   3 1.42
  45  0.372  0.800  0.001-  26 1.42  46 1.42  30 1.42
  46  0.439  0.934  0.001-  15 1.42  45 1.42   9 1.42
  47  0.572  0.800  0.001-  30 1.42  48 1.42  20 1.42
  48  0.639  0.934  0.001-  47 1.42  33 1.42  15 1.42
  49  0.772  0.800  0.001-  50 1.42  20 1.42  40 1.42
  50  0.839  0.934  0.001-  49 1.42   1 1.42  33 1.42
  51  0.373  0.251  0.106-  52 1.18  53 1.18
  52  0.421  0.189  0.109-  51 1.18
  53  0.325  0.313  0.104-  51 1.18
 
  LATTYP: Found a hexagonal cell.
 ALAT       =    12.3250000000
 C/A-ratio  =     2.0283975659
  
  Lattice vectors:
  
 A1 = (  12.3250000000,   0.0000000000,   0.0000000000)
 A2 = (  -6.1625000000,  10.6737631016,   0.0000000000)
 A3 = (   0.0000000000,   0.0000000000,  25.0000000000)


Analysis of symmetry for initial positions (statically):
=====================================================================
 Subroutine PRICEL returns:
 Original cell was already a primitive cell.
 

 Routine SETGRP: Setting up the symmetry group for a 
 hexagonal supercell.


 Subroutine GETGRP returns: Found  1 space group operations
 (whereof  1 operations were pure point group operations)
 out of a pool of 24 trial point group operations.


The static configuration has the point symmetry C_1 .


Analysis of symmetry for dynamics (positions and initial velocities):
=====================================================================
 Subroutine PRICEL returns:
 Original cell was already a primitive cell.
 

 Routine SETGRP: Setting up the symmetry group for a 
 hexagonal supercell.


 Subroutine GETGRP returns: Found  1 space group operations
 (whereof  1 operations were pure point group operations)
 out of a pool of 24 trial point group operations.


The dynamic configuration has the point symmetry C_1 .


 Subroutine INISYM returns: Found  1 space group operations
 (whereof  1 operations are pure point group operations),
 and found     1 'primitive' translations


----------------------------------------------------------------------------------------

                                     Primitive cell                                     

  volume of cell :    3288.8533

  direct lattice vectors                    reciprocal lattice vectors
    12.325000000  0.000000000  0.000000000     0.081135903  0.046843835  0.000000000
    -6.162500000 10.673763102  0.000000000     0.000000000  0.093687670  0.000000000
     0.000000000  0.000000000 25.000000000     0.000000000  0.000000000  0.040000000

  length of vectors
    12.325000000 12.325000000 25.000000000     0.093687670  0.093687670  0.040000000

  position of ions in fractional coordinates (direct lattice)
     0.972450841  0.000320818  0.000566711
     0.039118382  0.133659505  0.000440173
     0.172443627  0.000295449  0.000499628
     0.239096278  0.133647917  0.000256468
     0.972452058  0.200322012  0.000485219
     0.039128360  0.333643771  0.000444150
     0.172451764  0.200354552  0.000219167
     0.239124359  0.333665720  0.000072260
     0.372465565  0.000324403  0.000453913
     0.439137473  0.133619939  0.000258338
     0.972449824  0.400309362  0.000547611
     0.039124981  0.533636789  0.000573410
     0.372416176  0.400329481  0.000000000
     0.439099602  0.533638981  0.000232414
     0.572443676  0.000312125  0.000559580
     0.639110207  0.133631751  0.000547275
     0.972452703  0.600305653  0.000640289
     0.039124495  0.733640359  0.000654513
     0.572433471  0.600306242  0.000402895
     0.639111888  0.733641879  0.000527905
     0.172454630  0.400318228  0.000289045
     0.239120185  0.533636548  0.000378509
     0.372459750  0.200295993  0.000088997
     0.439107096  0.333673419  0.000055762
     0.172452155  0.600311506  0.000524340
     0.239123371  0.733638574  0.000575129
     0.572431082  0.200289171  0.000413296
     0.639112773  0.333618630  0.000462376
     0.372439808  0.600308022  0.000362844
     0.439116090  0.733637858  0.000494190
     0.572469358  0.400320504  0.000339918
     0.639119408  0.533650873  0.000459610
     0.772445723  0.000315427  0.000596161
     0.839116277  0.133640203  0.000575306
     0.772440513  0.200307432  0.000581033
     0.839120241  0.333635728  0.000585467
     0.772446320  0.400298367  0.000582978
     0.839118980  0.533633964  0.000621100
     0.772456143  0.600308173  0.000595712
     0.839115033  0.733643180  0.000631512
     0.972455313  0.800305582  0.000652233
     0.039114714  0.933643289  0.000598051
     0.172457971  0.800312211  0.000623372
     0.239134551  0.933647193  0.000544850
     0.372451396  0.800316674  0.000551399
     0.439124489  0.933644769  0.000541430
     0.572441101  0.800310054  0.000534535
     0.639115067  0.933638985  0.000587644
     0.772445098  0.800313187  0.000602062
     0.839116614  0.933644338  0.000606830
     0.373021009  0.251226878  0.105946310
     0.420879805  0.189313152  0.108523184
     0.325156981  0.313167186  0.103568115

  ion indices of the primitive-cell ions
   primitive index   ion index
                 1           1
                 2           2
                 3           3
                 4           4
                 5           5
                 6           6
                 7           7
                 8           8
                 9           9
                10          10
                11          11
                12          12
                13          13
                14          14
                15          15
                16          16
                17          17
                18          18
                19          19
                20          20
                21          21
                22          22
                23          23
                24          24
                25          25
                26          26
                27          27
                28          28
                29          29
                30          30
                31          31
                32          32
                33          33
                34          34
                35          35
                36          36
                37          37
                38          38
                39          39
                40          40
                41          41
                42          42
                43          43
                44          44
                45          45
                46          46
                47          47
                48          48
                49          49
                50          50
                51          51
                52          52
                53          53

----------------------------------------------------------------------------------------

 
 
 KPOINTS: auto                                    

Automatic generation of k-mesh.
 Grid dimensions read from file:
 generate k-points for:    1    1    1

 Generating k-lattice:

  Cartesian coordinates                     Fractional coordinates (reciprocal lattice)
     0.081135903  0.046843835  0.000000000     1.000000000 -0.000000000  0.000000000
     0.000000000  0.093687670  0.000000000     0.000000000  1.000000000  0.000000000
     0.000000000  0.000000000  0.040000000     0.000000000  0.000000000  1.000000000

  Length of vectors
     0.093687670  0.093687670  0.040000000

  Shift w.r.t. Gamma in fractional coordinates (k-lattice)
     0.000000000  0.000000000  0.000000000

 
 Subroutine IBZKPT returns following result:
 ===========================================
 
 Found      1 irreducible k-points:
 
 Following reciprocal coordinates:
            Coordinates               Weight
  0.000000  0.000000  0.000000      1.000000
 
 Following cartesian coordinates:
            Coordinates               Weight
  0.000000  0.000000  0.000000      1.000000
 


--------------------------------------------------------------------------------------------------------




 Dimension of arrays:
   k-points           NKPTS =      1   k-points in BZ     NKDIM =      1   number of bands    NBANDS=    136
   number of dos      NEDOS =    301   number of ions     NIONS =     53
   non local maximal  LDIM  =      4   non local SUM 2l+1 LMDIM =      8
   total plane-waves  NPLWV = ******
   max r-space proj   IRMAX =      1   max aug-charges    IRDMAX=  10008
   dimension x,y,z NGX =   128 NGY =  128 NGZ =  270
   dimension x,y,z NGXF=   256 NGYF=  256 NGZF=  540
   support grid    NGXF=   256 NGYF=  256 NGZF=  540
   ions per type =              51   2
   NGX,Y,Z   is equivalent  to a cutoff of  17.27, 17.27, 17.95 a.u.
   NGXF,Y,Z  is equivalent  to a cutoff of  34.53, 34.53, 35.91 a.u.

 SYSTEM =  unknown system                          
 POSCAR =   C  O                                   

 Startparameter for this run:
   NWRITE =      2    write-flag & timer
   PREC   = accura    normal or accurate (medium, high low for compatibility)
   ISTART =      0    job   : 0-new  1-cont  2-samecut
   ICHARG =      2    charge: 1-file 2-atom 10-const
   ISPIN  =      1    spin polarized calculation?
   LNONCOLLINEAR =      F non collinear calculations
   LSORBIT =      F    spin-orbit coupling
   INIWAV =      1    electr: 0-lowe 1-rand  2-diag
   LASPH  =      T    aspherical Exc in radial PAW
 Electronic Relaxation 1
   ENCUT  = 1000.0 eV  73.50 Ry    8.57 a.u.  31.78 31.78 64.46*2*pi/ulx,y,z
   ENINI  = 1000.0     initial cutoff
   ENAUG  =  946.8 eV  augmentation charge cutoff
   NELM   =     60;   NELMIN=  2; NELMDL= -5     # of ELM steps 
   EDIFF  = 0.1E-06   stopping-criterion for ELM
   LREAL  =      F    real-space projection
   NLSPLINE    = F    spline interpolate recip. space projectors
   LCOMPAT=      F    compatible to vasp.4.4
   GGA_COMPAT  = T    GGA compatible to vasp.4.4-vasp.4.6
   LMAXPAW     = -100 max onsite density
   LMAXMIX     =    2 max onsite mixed and CHGCAR
   VOSKOWN=      0    Vosko Wilk Nusair interpolation
   ROPT   =    0.00000   0.00000
 Ionic relaxation
   EDIFFG = 0.1E-05   stopping-criterion for IOM
   NSW    =      0    number of steps for IOM
   NBLOCK =      1;   KBLOCK =      1    inner block; outer block 
   IBRION =     -1    ionic relax: 0-MD 1-quasi-New 2-CG
   NFREE  =      0    steps in history (QN), initial steepest desc. (CG)
   ISIF   =      0    stress and relaxation
   IWAVPR =     10    prediction:  0-non 1-charg 2-wave 3-comb
   ISYM   =      2    0-nonsym 1-usesym 2-fastsym
   LCORR  =      T    Harris-Foulkes like correction to forces

   POTIM  = 0.5000    time-step for ionic-motion
   TEIN   =    0.0    initial temperature
   TEBEG  =    0.0;   TEEND  =   0.0 temperature during run
   SMASS  =  -3.00    Nose mass-parameter (am)
   estimated Nose-frequenzy (Omega)   =  0.10E-29 period in steps = 0.13E+47 mass=  -0.347E-26a.u.
   SCALEE = 1.0000    scale energy and forces
   NPACO  =    256;   APACO  = 16.0  distance and # of slots for P.C.
   PSTRESS=    0.0 pullay stress

  Mass of Ions in am
   POMASS =  12.01 16.00
  Ionic Valenz
   ZVAL   =   4.00  6.00
  Atomic Wigner-Seitz radii
   RWIGS  =  -1.00 -1.00
  virtual crystal weights 
   VCA    =   1.00  1.00
   NELECT =     216.0000    total number of electrons
   NUPDOWN=      -1.0000    fix difference up-down

 DOS related values:
   EMIN   =  10.00;   EMAX   =-10.00  energy-range for DOS
   EFERMI =   0.00
   ISMEAR =     0;   SIGMA  =   0.01  broadening in eV -4-tet -1-fermi 0-gaus

 Electronic relaxation 2 (details)
   IALGO  =     58    algorithm
   LDIAG  =      T    sub-space diagonalisation (order eigenvalues)
   LSUBROT=      F    optimize rotation matrix (better conditioning)
   TURBO    =      0    0=normal 1=particle mesh
   IRESTART =      0    0=no restart 2=restart with 2 vectors
   NREBOOT  =      0    no. of reboots
   NMIN     =      0    reboot dimension
   EREF     =   0.00    reference energy to select bands
   IMIX   =      4    mixing-type and parameters
     AMIX     =   0.40;   BMIX     =  1.00
     AMIX_MAG =   1.60;   BMIX_MAG =  1.00
     AMIN     =   0.10
     WC   =   100.;   INIMIX=   1;  MIXPRE=   1;  MAXMIX= -45

 Intra band minimization:
   WEIMIN = 0.0000     energy-eigenvalue tresh-hold
   EBREAK =  0.18E-09  absolut break condition
   DEPER  =   0.30     relativ break condition  

   TIME   =   0.40     timestep for ELM

  volume/ion in A,a.u.               =      62.05       418.76
  Fermi-wavevector in a.u.,A,eV,Ry     =   0.660508  1.248179  5.935820  0.436270
  Thomas-Fermi vector in A             =   1.732977
 
 Write flags
   LWAVE        =      T    write WAVECAR
   LDOWNSAMPLE  =      F    k-point downsampling of WAVECAR
   LCHARG       =      T    write CHGCAR
   LVTOT        =      F    write LOCPOT, total local potential
   LVHAR        =      F    write LOCPOT, Hartree potential only
   LELF         =      F    write electronic localiz. function (ELF)
   LORBIT       =      0    0 simple, 1 ext, 2 COOP (PROOUT), +10 PAW based schemes


 Dipole corrections
   LMONO  =      F    monopole corrections only (constant potential shift)
   LDIPOL =      F    correct potential (dipole corrections)
   IDIPOL =      0    1-x, 2-y, 3-z, 4-all directions 
   EPSILON=  1.0000000 bulk dielectric constant

 Exchange correlation treatment:
   GGA     =    MK    GGA type
   LEXCH   =    43    internal setting for exchange type
   VOSKOWN=      0    Vosko Wilk Nusair interpolation
   LHFCALC =     F    Hartree Fock is set to
   LHFONE  =     F    Hartree Fock one center treatment
   AEXX    =    0.0000 exact exchange contribution

 vdW DFT:
   LUSE_VDW   =     T    switch on vdW DFT
   Zab_VDW    =-.8491    correlation parameter
   PARAM1     =0.1234
   PARAM2     =1.0000
   PARAM3     =0.0000
   -- rVV10 --
   BPARAM     = 6.3000
   CPARAM     = 0.0093

 Linear response parameters
   LEPSILON=     F    determine dielectric tensor
   LRPA    =     F    only Hartree local field effects (RPA)
   LNABLA  =     F    use nabla operator in PAW spheres
   LVEL    =     F    velocity operator in full k-point grid
   LINTERFAST=   F  fast interpolation
   KINTER  =     0    interpolate to denser k-point grid
   CSHIFT  =0.1000    complex shift for real part using Kramers Kronig
   OMEGAMAX=  -1.0    maximum frequency
   DEG_THRESHOLD= 0.2000000E-02 threshold for treating states as degnerate
   RTIME   =   -0.100 relaxation time in fs
  (WPLASMAI=    0.000 imaginary part of plasma frequency in eV, 0.658/RTIME)
   DFIELD  = 0.0000000 0.0000000 0.0000000 field for delta impulse in time
 
 Orbital magnetization related:
   ORBITALMAG=     F  switch on orbital magnetization
   LCHIMAG   =     F  perturbation theory with respect to B field
   DQ        =  0.001000  dq finite difference perturbation B field
   LLRAUG    =     F  two centre corrections for induced B field



--------------------------------------------------------------------------------------------------------


 Static calculation
 charge density and potential will be updated during run
 non-spin polarized calculation
 Conjugate gradient for all bands (Freysoldt, et al. PRB 79, 241103 (2009))
 preconditioned conjugated gradient                                        
 perform sub-space diagonalisation
    before iterative eigenvector-optimisation
 modified Broyden-mixing scheme, WC =      100.0
 initial mixing is a Kerker type mixing with AMIX =  0.4000 and BMIX =      1.0000
 Hartree-type preconditioning will be used
 using additional bands           28
 reciprocal scheme for non local part
 use partial core corrections
 no Harris-corrections to forces 
 use gradient corrections 
 use of overlap-Matrix (Vanderbilt PP)
 Gauss-broadening in eV      SIGMA  =   0.01


--------------------------------------------------------------------------------------------------------


  energy-cutoff  :     1000.00
  volume of cell :     3288.85
      direct lattice vectors                 reciprocal lattice vectors
    12.325000000  0.000000000  0.000000000     0.081135903  0.046843835  0.000000000
    -6.162500000 10.673763102  0.000000000     0.000000000  0.093687670  0.000000000
     0.000000000  0.000000000 25.000000000     0.000000000  0.000000000  0.040000000

  length of vectors
    12.325000000 12.325000000 25.000000000     0.093687670  0.093687670  0.040000000


 
 k-points in units of 2pi/SCALE and weight: auto                                    
   0.00000000  0.00000000  0.00000000       1.000
 
 k-points in reciprocal lattice and weights: auto                                    
   0.00000000  0.00000000  0.00000000       1.000
 
 position of ions in fractional coordinates (direct lattice) 
   0.97245084  0.00032082  0.00056671
   0.03911838  0.13365950  0.00044017
   0.17244363  0.00029545  0.00049963
   0.23909628  0.13364792  0.00025647
   0.97245206  0.20032201  0.00048522
   0.03912836  0.33364377  0.00044415
   0.17245176  0.20035455  0.00021917
   0.23912436  0.33366572  0.00007226
   0.37246557  0.00032440  0.00045391
   0.43913747  0.13361994  0.00025834
   0.97244982  0.40030936  0.00054761
   0.03912498  0.53363679  0.00057341
   0.37241618  0.40032948  0.00000000
   0.43909960  0.53363898  0.00023241
   0.57244368  0.00031213  0.00055958
   0.63911021  0.13363175  0.00054727
   0.97245270  0.60030565  0.00064029
   0.03912449  0.73364036  0.00065451
   0.57243347  0.60030624  0.00040289
   0.63911189  0.73364188  0.00052791
   0.17245463  0.40031823  0.00028904
   0.23912018  0.53363655  0.00037851
   0.37245975  0.20029599  0.00008900
   0.43910710  0.33367342  0.00005576
   0.17245216  0.60031151  0.00052434
   0.23912337  0.73363857  0.00057513
   0.57243108  0.20028917  0.00041330
   0.63911277  0.33361863  0.00046238
   0.37243981  0.60030802  0.00036284
   0.43911609  0.73363786  0.00049419
   0.57246936  0.40032050  0.00033992
   0.63911941  0.53365087  0.00045961
   0.77244572  0.00031543  0.00059616
   0.83911628  0.13364020  0.00057531
   0.77244051  0.20030743  0.00058103
   0.83912024  0.33363573  0.00058547
   0.77244632  0.40029837  0.00058298
   0.83911898  0.53363396  0.00062110
   0.77245614  0.60030817  0.00059571
   0.83911503  0.73364318  0.00063151
   0.97245531  0.80030558  0.00065223
   0.03911471  0.93364329  0.00059805
   0.17245797  0.80031221  0.00062337
   0.23913455  0.93364719  0.00054485
   0.37245140  0.80031667  0.00055140
   0.43912449  0.93364477  0.00054143
   0.57244110  0.80031005  0.00053453
   0.63911507  0.93363899  0.00058764
   0.77244510  0.80031319  0.00060206
   0.83911661  0.93364434  0.00060683
   0.37302101  0.25122688  0.10594631
   0.42087980  0.18931315  0.10852318
   0.32515698  0.31316719  0.10356811
 
 position of ions in cartesian coordinates  (Angst):
  11.98347958  0.00342433  0.01416777
  -0.34154264  1.42664989  0.01100432
   2.12354700  0.00315355  0.01249070
   2.12325634  1.42652621  0.00641170
  10.75098721  2.13818970  0.01213047
  -1.57382270  3.56123457  0.01110375
   0.89078307  2.13853702  0.00547917
   0.89099273  3.56146885  0.00180651
   4.58863896  0.00346260  0.01134782
   4.58893648  1.42622757  0.00645846
   9.51853763  4.27280730  0.01369027
  -2.80632132  5.69591267  0.01433526
   2.12299894  4.27302204  0.00000000
   2.12335237  5.69593607  0.00581036
   7.05344483  0.00333155  0.01398950
   7.05352764  1.42635365  0.01368187
   8.28609598  6.40752033  0.01600723
  -4.03884931  7.83070339  0.01636283
   3.35585531  6.40752662  0.01007237
   3.35598594  7.83071962  0.01319763
  -0.34145776  4.27290193  0.00722612
  -0.34137895  5.69591010  0.00946273
   3.35624236  2.13791198  0.00222492
   3.35573251  3.56155103  0.00139405
  -1.57394684  6.40758280  0.01310850
  -1.57385216  7.83068434  0.01437823
   5.82093107  2.13783916  0.01033241
   5.82114012  3.56096622  0.01155939
   0.89092245  6.40754561  0.00907111
   0.89106251  7.83067670  0.01235474
   4.58870974  4.27292622  0.00849795
   4.58852320  5.69606300  0.01149026
   9.51844972  0.00336679  0.01490402
   9.51855036  1.42644387  0.01438264
   8.28593477  2.13803408  0.01452582
   8.28612680  3.56114872  0.01463668
   7.05356221  4.27268994  0.01457444
   7.05362213  5.69588251  0.01552751
   5.82112285  6.40754723  0.01489279
   5.82101669  7.83073350  0.01578780
   7.05362858  8.54227219  0.01630582
  -5.27148792  9.96548729  0.01495127
  -2.80637951  8.54234295  0.01558431
  -2.80626749  9.96552896  0.01362126
  -0.34148805  8.54239058  0.01378498
  -0.34137657  9.96550309  0.01353576
   2.12342586  8.54231992  0.01336337
   2.12354296  9.96544135  0.01469111
   4.58845581  8.54235337  0.01505154
   4.58852904  9.96549848  0.01517076
   3.04929830  2.68153618  2.64865774
   4.02070129  2.02068374  2.71307960
   2.07766701  3.34267235  2.58920287
 


--------------------------------------------------------------------------------------------------------


 k-point   1 :   0.0000 0.0000 0.0000  plane waves:  236157

 maximum and minimum number of plane-waves per node :      8440     8428

 maximum number of plane-waves:    236157
 maximum index in each direction: 
   IXMAX=   31   IYMAX=   31   IZMAX=   64
   IXMIN=  -31   IYMIN=  -31   IZMIN=  -64


 parallel 3D FFT for wavefunctions:
    minimum data exchange during FFTs selected (reduces bandwidth)
 parallel 3D FFT for charge:
    minimum data exchange during FFTs selected (reduces bandwidth)


 total amount of memory used by VASP MPI-rank0   100580. kBytes
=======================================================================

   base      :      30000. kBytes
   nonl-proj :       8229. kBytes
   fftplans  :      18352. kBytes
   grid      :      30208. kBytes
   one-center:          6. kBytes
   wavefun   :      13785. kBytes
 
     INWAV:  cpu time    0.0000: real time    0.0000
 Broyden mixing: mesh for mixing (old mesh)
   NGX = 63   NGY = 63   NGZ =129
  (NGX  =256   NGY  =256   NGZ  =540)
  gives a total of 512001 points

 initial charge density was supplied:
 charge density of overlapping atoms calculated
 number of electron     216.0000000 magnetization 
 keeping initial charge density in first step


--------------------------------------------------------------------------------------------------------


 Maximum index for augmentation-charges          471 (set IRDMAX)


--------------------------------------------------------------------------------------------------------


 First call to EWALD:  gamma=   0.119
 Maximum number of real-space cells 4x 4x 2
 Maximum number of reciprocal cells 2x 2x 4

    FEWALD:  cpu time    0.0023: real time    0.0023


--------------------------------------- Iteration      1(   1)  ---------------------------------------


vdW kernel read from vdw_kernel.bindat
  0.0000  0.2424  0.5071  0.7962  1.1119  1.4567  1.8333  2.2446  2.6937  3.1842
  3.7199  4.3049  4.9438  5.6415  6.4036  7.2358  8.1446  9.1372 10.2212 11.4050
 12.6979 14.1099 15.6519 17.3360 19.1751 21.1837 23.3773 25.7729 28.3892 31.2465
 34.3669 37.7748 41.4965 45.5611 50.0000
 
    POTLOK:  cpu time    4.5158: real time    4.5588
    SETDIJ:  cpu time    0.0553: real time    0.0556
    TRIAL :  cpu time    2.0705: real time    2.0909
    CORREC:  cpu time    0.0002: real time    0.0005
    --------------------------------------------
      LOOP:  cpu time    6.6454: real time    6.7261

 eigenvalue-minimisations  :   288
 total energy-change (2. order) : 0.2769961E+04  (-0.1019697E+05)
 number of electron     216.0000000 magnetization 
 augmentation part      216.0000000 magnetization 

 Free energy of the ion-electron system (eV)
  ---------------------------------------------------
  alpha Z        PSCENC =        47.94900195
  Ewald energy   TEWEN  =     48385.02047969
  -Hartree energ DENC   =    -54452.06656991
  -exchange      EXHF   =         0.00000000
  -V(xc)+E(xc)   XCENC  =       414.70735994
  PAW double counting   =      6552.85433684    -6257.21772958
  entropy T*S    EENTRO =        -0.00000000
  eigenvalues    EBANDS =      -336.32126573
  atomic energy  EATOM  =      8415.03548706
  ---------------------------------------------------
  free energy    TOTEN  =      2769.96110027 eV

  energy without entropy =     2769.96110027  energy(sigma->0) =     2769.96110027


--------------------------------------------------------------------------------------------------------




--------------------------------------- Iteration      1(   2)  ---------------------------------------


    TRIAL :  cpu time    2.8622: real time    2.8891
    CORREC:  cpu time    0.0001: real time    0.0001
    --------------------------------------------
      LOOP:  cpu time    2.9344: real time    2.9630

 eigenvalue-minimisations  :   448
 total energy-change (2. order) :-0.2325282E+04  (-0.2176033E+04)
 number of electron     216.0000000 magnetization 
 augmentation part      216.0000000 magnetization 

 Free energy of the ion-electron system (eV)
  ---------------------------------------------------
  alpha Z        PSCENC =        47.94900195
  Ewald energy   TEWEN  =     48385.02047969
  -Hartree energ DENC   =    -54452.06656991
  -exchange      EXHF   =         0.00000000
  -V(xc)+E(xc)   XCENC  =       414.70735994
  PAW double counting   =      6552.85433684    -6257.21772958
  entropy T*S    EENTRO =        -0.00000000
  eigenvalues    EBANDS =     -2661.60281004
  atomic energy  EATOM  =      8415.03548706
  ---------------------------------------------------
  free energy    TOTEN  =       444.67955595 eV

  energy without entropy =      444.67955595  energy(sigma->0) =      444.67955595


--------------------------------------------------------------------------------------------------------




--------------------------------------- Iteration      1(   3)  ---------------------------------------


    TRIAL :  cpu time    2.4012: real time    2.4215
    CORREC:  cpu time    0.0001: real time    0.0001
    --------------------------------------------
      LOOP:  cpu time    2.4614: real time    2.4842

 eigenvalue-minimisations  :   352
 total energy-change (2. order) :-0.8159220E+03  (-0.8018521E+03)
 number of electron     216.0000000 magnetization 
 augmentation part      216.0000000 magnetization 

 Free energy of the ion-electron system (eV)
  ---------------------------------------------------
  alpha Z        PSCENC =        47.94900195
  Ewald energy   TEWEN  =     48385.02047969
  -Hartree energ DENC   =    -54452.06656991
  -exchange      EXHF   =         0.00000000
  -V(xc)+E(xc)   XCENC  =       414.70735994
  PAW double counting   =      6552.85433684    -6257.21772958
  entropy T*S    EENTRO =        -0.00000000
  eigenvalues    EBANDS =     -3477.52483747
  atomic energy  EATOM  =      8415.03548706
  ---------------------------------------------------
  free energy    TOTEN  =      -371.24247147 eV

  energy without entropy =     -371.24247147  energy(sigma->0) =     -371.24247147


--------------------------------------------------------------------------------------------------------




--------------------------------------- Iteration      1(   4)  ---------------------------------------


    TRIAL :  cpu time    2.3345: real time    2.3551
    CORREC:  cpu time    0.0001: real time    0.0001
    --------------------------------------------
      LOOP:  cpu time    2.3728: real time    2.3967

 eigenvalue-minimisations  :   344
 total energy-change (2. order) :-0.7619542E+02  (-0.7518419E+02)
 number of electron     216.0000000 magnetization 
 augmentation part      216.0000000 magnetization 

 Free energy of the ion-electron system (eV)
  ---------------------------------------------------
  alpha Z        PSCENC =        47.94900195
  Ewald energy   TEWEN  =     48385.02047969
  -Hartree energ DENC   =    -54452.06656991
  -exchange      EXHF   =         0.00000000
  -V(xc)+E(xc)   XCENC  =       414.70735994
  PAW double counting   =      6552.85433684    -6257.21772958
  entropy T*S    EENTRO =        -0.00000000
  eigenvalues    EBANDS =     -3553.72025493
  atomic energy  EATOM  =      8415.03548706
  ---------------------------------------------------
  free energy    TOTEN  =      -447.43788894 eV

  energy without entropy =     -447.43788894  energy(sigma->0) =     -447.43788894


--------------------------------------------------------------------------------------------------------




--------------------------------------- Iteration      1(   5)  ---------------------------------------


    TRIAL :  cpu time    2.4244: real time    2.4459
    CORREC:  cpu time    0.0001: real time    0.0003
    CHARGE:  cpu time    0.1769: real time    0.1789
    --------------------------------------------
      LOOP:  cpu time    2.6356: real time    2.6939

 eigenvalue-minimisations  :   360
 total energy-change (2. order) :-0.2248571E+01  (-0.2235722E+01)
 number of electron     216.0000000 magnetization 
 augmentation part       -0.2580824 magnetization 

 Free energy of the ion-electron system (eV)
  ---------------------------------------------------
  alpha Z        PSCENC =        47.94900195
  Ewald energy   TEWEN  =     48385.02047969
  -Hartree energ DENC   =    -54452.06656991
  -exchange      EXHF   =         0.00000000
  -V(xc)+E(xc)   XCENC  =       414.70735994
  PAW double counting   =      6552.85433684    -6257.21772958
  entropy T*S    EENTRO =        -0.00000000
  eigenvalues    EBANDS =     -3555.96882631
  atomic energy  EATOM  =      8415.03548706
  ---------------------------------------------------
  free energy    TOTEN  =      -449.68646031 eV

  energy without entropy =     -449.68646031  energy(sigma->0) =     -449.68646031


--------------------------------------------------------------------------------------------------------




--------------------------------------- Iteration      1(   6)  ---------------------------------------


    POTLOK:  cpu time    4.2792: real time    4.3081
    SETDIJ:  cpu time    0.0543: real time    0.0545
    TRIAL :  cpu time    1.1600: real time    1.1705
    CORREC:  cpu time    4.6757: real time    4.7114
    CHARGE:  cpu time    0.1777: real time    0.1796
    --------------------------------------------
      LOOP:  cpu time   10.4187: real time   10.5082

 eigenvalue-minimisations  :     0
 total energy-change (2. order) : 0.5049337E+02  (-0.1565584E+02)
 number of electron     216.0000000 magnetization 
 augmentation part       -0.3474496 magnetization 

 Free energy of the ion-electron system (eV)
  ---------------------------------------------------
  alpha Z        PSCENC =        47.94900195
  Ewald energy   TEWEN  =     48385.02047969
  -Hartree energ DENC   =    -55889.20478471
  -exchange      EXHF   =         0.00000000
  -V(xc)+E(xc)   XCENC  =       461.64654407
  PAW double counting   =     86425.72328224   -86135.04575810
  entropy T*S    EENTRO =        -0.00000000
  eigenvalues    EBANDS =     -2110.31734225
  atomic energy  EATOM  =      8415.03548706
  ---------------------------------------------------
  free energy    TOTEN  =      -399.19309004 eV

  energy without entropy =     -399.19309004  energy(sigma->0) =     -399.19309004


--------------------------------------------------------------------------------------------------------




--------------------------------------- Iteration      1(   7)  ---------------------------------------


    POTLOK:  cpu time    4.2649: real time    4.2970
    SETDIJ:  cpu time    0.0543: real time    0.0545
    TRIAL :  cpu time    1.1593: real time    1.1705
    CORREC:  cpu time    4.6876: real time    4.7230
    CHARGE:  cpu time    0.1781: real time    0.1798
    --------------------------------------------
      LOOP:  cpu time   10.3872: real time   10.4740

 eigenvalue-minimisations  :     0
 total energy-change (2. order) :-0.1568650E+02  (-0.1717166E+01)
 number of electron     216.0000000 magnetization 
 augmentation part       -0.3928779 magnetization 

 Free energy of the ion-electron system (eV)
  ---------------------------------------------------
  alpha Z        PSCENC =        47.94900195
  Ewald energy   TEWEN  =     48385.02047969
  -Hartree energ DENC   =    -55364.88230261
  -exchange      EXHF   =         0.00000000
  -V(xc)+E(xc)   XCENC  =       444.94366191
  PAW double counting   =    101718.21449905  -101425.15315431
  entropy T*S    EENTRO =        -0.00000000
  eigenvalues    EBANDS =     -2636.00726733
  atomic energy  EATOM  =      8415.03548706
  ---------------------------------------------------
  free energy    TOTEN  =      -414.87959459 eV

  energy without entropy =     -414.87959459  energy(sigma->0) =     -414.87959459


--------------------------------------------------------------------------------------------------------




--------------------------------------- Iteration      1(   8)  ---------------------------------------


    POTLOK:  cpu time    4.2428: real time    4.2719
    SETDIJ:  cpu time    0.0544: real time    0.0545
    TRIAL :  cpu time    1.1552: real time    1.1659
    CORREC:  cpu time    4.7001: real time    4.7343
    CHARGE:  cpu time    0.1788: real time    0.1806
    --------------------------------------------
      LOOP:  cpu time   10.3827: real time   10.4636

 eigenvalue-minimisations  :     0
 total energy-change (2. order) :-0.1717666E+01  (-0.4674218E+00)
 number of electron     216.0000000 magnetization 
 augmentation part       -0.4082238 magnetization 

 Free energy of the ion-electron system (eV)
  ---------------------------------------------------
  alpha Z        PSCENC =        47.94900195
  Ewald energy   TEWEN  =     48385.02047969
  -Hartree energ DENC   =    -55351.25044984
  -exchange      EXHF   =         0.00000000
  -V(xc)+E(xc)   XCENC  =       444.53890868
  PAW double counting   =    105621.78170269  -105328.45128827
  entropy T*S    EENTRO =        -0.00000000
  eigenvalues    EBANDS =     -2651.22110228
  atomic energy  EATOM  =      8415.03548706
  ---------------------------------------------------
  free energy    TOTEN  =      -416.59726032 eV

  energy without entropy =     -416.59726032  energy(sigma->0) =     -416.59726032


--------------------------------------------------------------------------------------------------------




--------------------------------------- Iteration      1(   9)  ---------------------------------------


    POTLOK:  cpu time    4.2111: real time    4.2408
    SETDIJ:  cpu time    0.0547: real time    0.0549
    TRIAL :  cpu time    1.1547: real time    1.1656
    CORREC:  cpu time    4.6831: real time    4.7183
    CHARGE:  cpu time    0.1783: real time    0.1799
    --------------------------------------------
      LOOP:  cpu time   10.3355: real time   10.4181

 eigenvalue-minimisations  :     0
 total energy-change (2. order) :-0.4670694E+00  (-0.1764231E+00)
 number of electron     216.0000000 magnetization 
 augmentation part       -0.4149440 magnetization 

 Free energy of the ion-electron system (eV)
  ---------------------------------------------------
  alpha Z        PSCENC =        47.94900195
  Ewald energy   TEWEN  =     48385.02047969
  -Hartree energ DENC   =    -55363.48524686
  -exchange      EXHF   =         0.00000000
  -V(xc)+E(xc)   XCENC  =       444.64830745
  PAW double counting   =    108016.40648625  -107722.96005007
  entropy T*S    EENTRO =        -0.00000000
  eigenvalues    EBANDS =     -2639.67879516
  atomic energy  EATOM  =      8415.03548706
  ---------------------------------------------------
  free energy    TOTEN  =      -417.06432969 eV

  energy without entropy =     -417.06432969  energy(sigma->0) =     -417.06432969


--------------------------------------------------------------------------------------------------------




--------------------------------------- Iteration      1(  10)  ---------------------------------------


    POTLOK:  cpu time    4.2137: real time    4.2550
    SETDIJ:  cpu time    0.0544: real time    0.0546
    TRIAL :  cpu time    1.1554: real time    1.1663
    CORREC:  cpu time    4.6827: real time    4.7181
    CHARGE:  cpu time    0.1767: real time    0.1785
    --------------------------------------------
      LOOP:  cpu time   10.3690: real time   10.4627

 eigenvalue-minimisations  :     0
 total energy-change (2. order) :-0.1758990E+00  (-0.8347398E-01)
 number of electron     216.0000000 magnetization 
 augmentation part       -0.4152534 magnetization 

 Free energy of the ion-electron system (eV)
  ---------------------------------------------------
  alpha Z        PSCENC =        47.94900195
  Ewald energy   TEWEN  =     48385.02047969
  -Hartree energ DENC   =    -55359.38272238
  -exchange      EXHF   =         0.00000000
  -V(xc)+E(xc)   XCENC  =       444.50567579
  PAW double counting   =    108364.36049660  -108070.84495334
  entropy T*S    EENTRO =        -0.00000000
  eigenvalues    EBANDS =     -2643.88369410
  atomic energy  EATOM  =      8415.03548706
  ---------------------------------------------------
  free energy    TOTEN  =      -417.24022872 eV

  energy without entropy =     -417.24022872  energy(sigma->0) =     -417.24022872


--------------------------------------------------------------------------------------------------------




--------------------------------------- Iteration      1(  11)  ---------------------------------------


    POTLOK:  cpu time    4.2144: real time    4.2443
    SETDIJ:  cpu time    0.0544: real time    0.0546
    TRIAL :  cpu time    1.1596: real time    1.1707
    CORREC:  cpu time    4.7157: real time    4.7516
    CHARGE:  cpu time    0.1777: real time    0.1793
    --------------------------------------------
      LOOP:  cpu time   10.3501: real time   10.4454

 eigenvalue-minimisations  :     0
 total energy-change (2. order) :-0.8296157E-01  (-0.3397816E-01)
 number of electron     216.0000000 magnetization 
 augmentation part       -0.4145353 magnetization 

 Free energy of the ion-electron system (eV)
  ---------------------------------------------------
  alpha Z        PSCENC =        47.94900195
  Ewald energy   TEWEN  =     48385.02047969
  -Hartree energ DENC   =    -55352.69750610
  -exchange      EXHF   =         0.00000000
  -V(xc)+E(xc)   XCENC  =       444.40560391
  PAW double counting   =    107834.52842865  -107541.01861293
  entropy T*S    EENTRO =        -0.00000000
  eigenvalues    EBANDS =     -2650.54607252
  atomic energy  EATOM  =      8415.03548706
  ---------------------------------------------------
  free energy    TOTEN  =      -417.32319029 eV

  energy without entropy =     -417.32319029  energy(sigma->0) =     -417.32319029


--------------------------------------------------------------------------------------------------------




--------------------------------------- Iteration      1(  12)  ---------------------------------------


    POTLOK:  cpu time    4.2506: real time    4.2832
    SETDIJ:  cpu time    0.0545: real time    0.0547
    TRIAL :  cpu time    1.1513: real time    1.1651
    CORREC:  cpu time    4.6724: real time    4.7221
    CHARGE:  cpu time    0.1781: real time    0.1801
    --------------------------------------------
      LOOP:  cpu time   10.3824: real time   10.5088

 eigenvalue-minimisations  :     0
 total energy-change (2. order) :-0.3385411E-01  (-0.1091967E-01)
 number of electron     216.0000000 magnetization 
 augmentation part       -0.4142391 magnetization 

 Free energy of the ion-electron system (eV)
  ---------------------------------------------------
  alpha Z        PSCENC =        47.94900195
  Ewald energy   TEWEN  =     48385.02047969
  -Hartree energ DENC   =    -55349.18975760
  -exchange      EXHF   =         0.00000000
  -V(xc)+E(xc)   XCENC  =       444.33352467
  PAW double counting   =    107459.67270757  -107166.18117400
  entropy T*S    EENTRO =        -0.00000000
  eigenvalues    EBANDS =     -2653.99731374
  atomic energy  EATOM  =      8415.03548706
  ---------------------------------------------------
  free energy    TOTEN  =      -417.35704440 eV

  energy without entropy =     -417.35704440  energy(sigma->0) =     -417.35704440


--------------------------------------------------------------------------------------------------------




--------------------------------------- Iteration      1(  13)  ---------------------------------------


    POTLOK:  cpu time    4.2147: real time    4.2509
    SETDIJ:  cpu time    0.0543: real time    0.0545
    TRIAL :  cpu time    1.1503: real time    1.1639
    CORREC:  cpu time    4.6775: real time    4.7215
    CHARGE:  cpu time    0.1785: real time    0.1808
    --------------------------------------------
      LOOP:  cpu time   10.3782: real time   10.4801

 eigenvalue-minimisations  :     0
 total energy-change (2. order) :-0.1091296E-01  (-0.3533236E-02)
 number of electron     216.0000000 magnetization 
 augmentation part       -0.4135707 magnetization 

 Free energy of the ion-electron system (eV)
  ---------------------------------------------------
  alpha Z        PSCENC =        47.94900195
  Ewald energy   TEWEN  =     48385.02047969
  -Hartree energ DENC   =    -55348.63433146
  -exchange      EXHF   =         0.00000000
  -V(xc)+E(xc)   XCENC  =       444.32004876
  PAW double counting   =    107335.11200668  -107041.62986784
  entropy T*S    EENTRO =        -0.00000000
  eigenvalues    EBANDS =     -2654.54078220
  atomic energy  EATOM  =      8415.03548706
  ---------------------------------------------------
  free energy    TOTEN  =      -417.36795736 eV

  energy without entropy =     -417.36795736  energy(sigma->0) =     -417.36795736


--------------------------------------------------------------------------------------------------------




--------------------------------------- Iteration      1(  14)  ---------------------------------------


    POTLOK:  cpu time    4.1988: real time    4.2338
    SETDIJ:  cpu time    0.0542: real time    0.0544
    TRIAL :  cpu time    1.1484: real time    1.1637
    CORREC:  cpu time    4.6842: real time    4.7293
    CHARGE:  cpu time    0.1776: real time    0.1798
    --------------------------------------------
      LOOP:  cpu time   10.3305: real time   10.4314

 eigenvalue-minimisations  :     0
 total energy-change (2. order) :-0.3535010E-02  (-0.1560358E-02)
 number of electron     216.0000000 magnetization 
 augmentation part       -0.4131024 magnetization 

 Free energy of the ion-electron system (eV)
  ---------------------------------------------------
  alpha Z        PSCENC =        47.94900195
  Ewald energy   TEWEN  =     48385.02047969
  -Hartree energ DENC   =    -55348.69326538
  -exchange      EXHF   =         0.00000000
  -V(xc)+E(xc)   XCENC  =       444.32164146
  PAW double counting   =    107330.87219831  -107037.39483254
  entropy T*S    EENTRO =        -0.00000000
  eigenvalues    EBANDS =     -2654.48220293
  atomic energy  EATOM  =      8415.03548706
  ---------------------------------------------------
  free energy    TOTEN  =      -417.37149237 eV

  energy without entropy =     -417.37149237  energy(sigma->0) =     -417.37149237


--------------------------------------------------------------------------------------------------------




--------------------------------------- Iteration      1(  15)  ---------------------------------------


    POTLOK:  cpu time    4.2054: real time    4.2431
    SETDIJ:  cpu time    0.0544: real time    0.0546
    TRIAL :  cpu time    1.1521: real time    1.1655
    CORREC:  cpu time    4.7180: real time    4.7550
    CHARGE:  cpu time    0.1785: real time    0.1802
    --------------------------------------------
      LOOP:  cpu time   10.3585: real time   10.4632

 eigenvalue-minimisations  :     0
 total energy-change (2. order) :-0.1563425E-02  (-0.9838939E-03)
 number of electron     216.0000000 magnetization 
 augmentation part       -0.4126007 magnetization 

 Free energy of the ion-electron system (eV)
  ---------------------------------------------------
  alpha Z        PSCENC =        47.94900195
  Ewald energy   TEWEN  =     48385.02047969
  -Hartree energ DENC   =    -55348.30035837
  -exchange      EXHF   =         0.00000000
  -V(xc)+E(xc)   XCENC  =       444.30617382
  PAW double counting   =    107325.52058631  -107032.04239082
  entropy T*S    EENTRO =        -0.00000000
  eigenvalues    EBANDS =     -2654.86203544
  atomic energy  EATOM  =      8415.03548706
  ---------------------------------------------------
  free energy    TOTEN  =      -417.37305579 eV

  energy without entropy =     -417.37305579  energy(sigma->0) =     -417.37305579


--------------------------------------------------------------------------------------------------------




--------------------------------------- Iteration      1(  16)  ---------------------------------------


    POTLOK:  cpu time    4.2121: real time    4.2412
    SETDIJ:  cpu time    0.0546: real time    0.0548
    TRIAL :  cpu time    1.1556: real time    1.1695
    CORREC:  cpu time    4.6886: real time    4.7231
    CHARGE:  cpu time    0.1782: real time    0.1799
    --------------------------------------------
      LOOP:  cpu time   10.3542: real time   10.4375

 eigenvalue-minimisations  :     0
 total energy-change (2. order) :-0.9844618E-03  (-0.5609140E-03)
 number of electron     216.0000000 magnetization 
 augmentation part       -0.4124781 magnetization 

 Free energy of the ion-electron system (eV)
  ---------------------------------------------------
  alpha Z        PSCENC =        47.94900195
  Ewald energy   TEWEN  =     48385.02047969
  -Hartree energ DENC   =    -55348.77434768
  -exchange      EXHF   =         0.00000000
  -V(xc)+E(xc)   XCENC  =       444.31978465
  PAW double counting   =    107263.52365907  -106970.04677283
  entropy T*S    EENTRO =        -0.00000000
  eigenvalues    EBANDS =     -2654.40133218
  atomic energy  EATOM  =      8415.03548706
  ---------------------------------------------------
  free energy    TOTEN  =      -417.37404026 eV

  energy without entropy =     -417.37404026  energy(sigma->0) =     -417.37404026


--------------------------------------------------------------------------------------------------------




--------------------------------------- Iteration      1(  17)  ---------------------------------------


    POTLOK:  cpu time    4.2030: real time    4.2319
    SETDIJ:  cpu time    0.0542: real time    0.0544
    TRIAL :  cpu time    1.1715: real time    1.1854
    CORREC:  cpu time    4.7324: real time    4.7674
    CHARGE:  cpu time    0.1785: real time    0.1802
    --------------------------------------------
      LOOP:  cpu time   10.3843: real time   10.4803

 eigenvalue-minimisations  :     0
 total energy-change (2. order) :-0.5600258E-03  (-0.2282048E-03)
 number of electron     216.0000000 magnetization 
 augmentation part       -0.4126829 magnetization 

 Free energy of the ion-electron system (eV)
  ---------------------------------------------------
  alpha Z        PSCENC =        47.94900195
  Ewald energy   TEWEN  =     48385.02047969
  -Hartree energ DENC   =    -55349.07021950
  -exchange      EXHF   =         0.00000000
  -V(xc)+E(xc)   XCENC  =       444.32748821
  PAW double counting   =    107206.36881363  -106912.89144769
  entropy T*S    EENTRO =        -0.00000000
  eigenvalues    EBANDS =     -2654.11420365
  atomic energy  EATOM  =      8415.03548706
  ---------------------------------------------------
  free energy    TOTEN  =      -417.37460028 eV

  energy without entropy =     -417.37460028  energy(sigma->0) =     -417.37460028


--------------------------------------------------------------------------------------------------------




--------------------------------------- Iteration      1(  18)  ---------------------------------------


    POTLOK:  cpu time    4.1901: real time    4.2244
    SETDIJ:  cpu time    0.0545: real time    0.0547
    TRIAL :  cpu time    1.1553: real time    1.1670
    CORREC:  cpu time    4.6913: real time    4.7269
    CHARGE:  cpu time    0.1775: real time    0.1798
    --------------------------------------------
      LOOP:  cpu time   10.3460: real time   10.4350

 eigenvalue-minimisations  :     0
 total energy-change (2. order) :-0.2276423E-03  (-0.8655663E-04)
 number of electron     216.0000000 magnetization 
 augmentation part       -0.4128615 magnetization 

 Free energy of the ion-electron system (eV)
  ---------------------------------------------------
  alpha Z        PSCENC =        47.94900195
  Ewald energy   TEWEN  =     48385.02047969
  -Hartree energ DENC   =    -55348.97717125
  -exchange      EXHF   =         0.00000000
  -V(xc)+E(xc)   XCENC  =       444.32568896
  PAW double counting   =    107205.17703431  -106911.69832129
  entropy T*S    EENTRO =        -0.00000000
  eigenvalues    EBANDS =     -2654.20702736
  atomic energy  EATOM  =      8415.03548706
  ---------------------------------------------------
  free energy    TOTEN  =      -417.37482792 eV

  energy without entropy =     -417.37482792  energy(sigma->0) =     -417.37482792


--------------------------------------------------------------------------------------------------------




--------------------------------------- Iteration      1(  19)  ---------------------------------------


    POTLOK:  cpu time    4.1861: real time    4.2139
    SETDIJ:  cpu time    0.0542: real time    0.0544
    TRIAL :  cpu time    1.1544: real time    1.1655
    CORREC:  cpu time    4.6811: real time    4.7164
    CHARGE:  cpu time    0.1783: real time    0.1802
    --------------------------------------------
      LOOP:  cpu time   10.2934: real time   10.4213

 eigenvalue-minimisations  :     0
 total energy-change (2. order) :-0.8598977E-04  (-0.3641080E-04)
 number of electron     216.0000000 magnetization 
 augmentation part       -0.4129877 magnetization 

 Free energy of the ion-electron system (eV)
  ---------------------------------------------------
  alpha Z        PSCENC =        47.94900195
  Ewald energy   TEWEN  =     48385.02047969
  -Hartree energ DENC   =    -55349.02228907
  -exchange      EXHF   =         0.00000000
  -V(xc)+E(xc)   XCENC  =       444.32819011
  PAW double counting   =    107228.42319200  -106934.94438650
  entropy T*S    EENTRO =        -0.00000000
  eigenvalues    EBANDS =     -2654.16458915
  atomic energy  EATOM  =      8415.03548706
  ---------------------------------------------------
  free energy    TOTEN  =      -417.37491391 eV

  energy without entropy =     -417.37491391  energy(sigma->0) =     -417.37491391


--------------------------------------------------------------------------------------------------------




--------------------------------------- Iteration      1(  20)  ---------------------------------------


    POTLOK:  cpu time    4.2066: real time    4.2353
    SETDIJ:  cpu time    0.0543: real time    0.0544
    TRIAL :  cpu time    1.1535: real time    1.1659
    CORREC:  cpu time    4.6777: real time    4.7109
    CHARGE:  cpu time    0.1784: real time    0.1801
    --------------------------------------------
      LOOP:  cpu time   10.3235: real time   10.4136

 eigenvalue-minimisations  :     0
 total energy-change (2. order) :-0.3608546E-04  (-0.1717021E-04)
 number of electron     216.0000000 magnetization 
 augmentation part       -0.4129788 magnetization 

 Free energy of the ion-electron system (eV)
  ---------------------------------------------------
  alpha Z        PSCENC =        47.94900195
  Ewald energy   TEWEN  =     48385.02047969
  -Hartree energ DENC   =    -55348.94521481
  -exchange      EXHF   =         0.00000000
  -V(xc)+E(xc)   XCENC  =       444.32581588
  PAW double counting   =    107246.82964272  -106953.35052675
  entropy T*S    EENTRO =        -0.00000000
  eigenvalues    EBANDS =     -2654.23963575
  atomic energy  EATOM  =      8415.03548706
  ---------------------------------------------------
  free energy    TOTEN  =      -417.37495000 eV

  energy without entropy =     -417.37495000  energy(sigma->0) =     -417.37495000


--------------------------------------------------------------------------------------------------------




--------------------------------------- Iteration      1(  21)  ---------------------------------------


    POTLOK:  cpu time    4.2115: real time    4.2422
    SETDIJ:  cpu time    0.0544: real time    0.0546
    TRIAL :  cpu time    1.1611: real time    1.1768
    CORREC:  cpu time    4.6785: real time    4.7266
    CHARGE:  cpu time    0.1778: real time    0.1795
    --------------------------------------------
      LOOP:  cpu time   10.3383: real time   10.4432

 eigenvalue-minimisations  :     0
 total energy-change (2. order) :-0.1704202E-04  (-0.7543771E-05)
 number of electron     216.0000000 magnetization 
 augmentation part       -0.4129630 magnetization 

 Free energy of the ion-electron system (eV)
  ---------------------------------------------------
  alpha Z        PSCENC =        47.94900195
  Ewald energy   TEWEN  =     48385.02047969
  -Hartree energ DENC   =    -55348.93718275
  -exchange      EXHF   =         0.00000000
  -V(xc)+E(xc)   XCENC  =       444.32608250
  PAW double counting   =    107253.33348142  -106959.85481301
  entropy T*S    EENTRO =        -0.00000000
  eigenvalues    EBANDS =     -2654.24750391
  atomic energy  EATOM  =      8415.03548706
  ---------------------------------------------------
  free energy    TOTEN  =      -417.37496704 eV

  energy without entropy =     -417.37496704  energy(sigma->0) =     -417.37496704


--------------------------------------------------------------------------------------------------------




--------------------------------------- Iteration      1(  22)  ---------------------------------------


    POTLOK:  cpu time    4.2061: real time    4.2356
    SETDIJ:  cpu time    0.0541: real time    0.0543
    TRIAL :  cpu time    1.1534: real time    1.1647
    CORREC:  cpu time    4.6985: real time    4.7349
    CHARGE:  cpu time    0.1784: real time    0.1801
    --------------------------------------------
      LOOP:  cpu time   10.3212: real time   10.4208

 eigenvalue-minimisations  :     0
 total energy-change (2. order) :-0.7569950E-05  (-0.3161075E-05)
 number of electron     216.0000000 magnetization 
 augmentation part       -0.4129350 magnetization 

 Free energy of the ion-electron system (eV)
  ---------------------------------------------------
  alpha Z        PSCENC =        47.94900195
  Ewald energy   TEWEN  =     48385.02047969
  -Hartree energ DENC   =    -55348.88770568
  -exchange      EXHF   =         0.00000000
  -V(xc)+E(xc)   XCENC  =       444.32470064
  PAW double counting   =    107252.14747216  -106958.66883598
  entropy T*S    EENTRO =        -0.00000000
  eigenvalues    EBANDS =     -2654.29557446
  atomic energy  EATOM  =      8415.03548706
  ---------------------------------------------------
  free energy    TOTEN  =      -417.37497461 eV

  energy without entropy =     -417.37497461  energy(sigma->0) =     -417.37497461


--------------------------------------------------------------------------------------------------------




--------------------------------------- Iteration      1(  23)  ---------------------------------------


    POTLOK:  cpu time    4.2184: real time    4.2492
    SETDIJ:  cpu time    0.0542: real time    0.0544
    TRIAL :  cpu time    1.1545: real time    1.1655
    CORREC:  cpu time    4.6758: real time    4.7113
    CHARGE:  cpu time    0.1789: real time    0.1806
    --------------------------------------------
      LOOP:  cpu time   10.3227: real time   10.4021

 eigenvalue-minimisations  :     0
 total energy-change (2. order) :-0.3194931E-05  (-0.1252788E-05)
 number of electron     216.0000000 magnetization 
 augmentation part       -0.4129244 magnetization 

 Free energy of the ion-electron system (eV)
  ---------------------------------------------------
  alpha Z        PSCENC =        47.94900195
  Ewald energy   TEWEN  =     48385.02047969
  -Hartree energ DENC   =    -55348.88726877
  -exchange      EXHF   =         0.00000000
  -V(xc)+E(xc)   XCENC  =       444.32493897
  PAW double counting   =    107250.05047276  -106956.57195631
  entropy T*S    EENTRO =        -0.00000000
  eigenvalues    EBANDS =     -2654.29613317
  atomic energy  EATOM  =      8415.03548706
  ---------------------------------------------------
  free energy    TOTEN  =      -417.37497781 eV

  energy without entropy =     -417.37497781  energy(sigma->0) =     -417.37497781


--------------------------------------------------------------------------------------------------------




--------------------------------------- Iteration      1(  24)  ---------------------------------------


    POTLOK:  cpu time    4.2040: real time    4.2384
    SETDIJ:  cpu time    0.0545: real time    0.0546
    TRIAL :  cpu time    1.1542: real time    1.1654
    CORREC:  cpu time    4.6815: real time    4.7194
    CHARGE:  cpu time    0.1786: real time    0.1804
    --------------------------------------------
      LOOP:  cpu time   10.3291: real time   10.4414

 eigenvalue-minimisations  :     0
 total energy-change (2. order) :-0.1283304E-05  (-0.5693061E-06)
 number of electron     216.0000000 magnetization 
 augmentation part       -0.4129228 magnetization 

 Free energy of the ion-electron system (eV)
  ---------------------------------------------------
  alpha Z        PSCENC =        47.94900195
  Ewald energy   TEWEN  =     48385.02047969
  -Hartree energ DENC   =    -55348.88522540
  -exchange      EXHF   =         0.00000000
  -V(xc)+E(xc)   XCENC  =       444.32504124
  PAW double counting   =    107249.45411534  -106955.97558903
  entropy T*S    EENTRO =        -0.00000000
  eigenvalues    EBANDS =     -2654.29828994
  atomic energy  EATOM  =      8415.03548706
  ---------------------------------------------------
  free energy    TOTEN  =      -417.37497909 eV

  energy without entropy =     -417.37497909  energy(sigma->0) =     -417.37497909


--------------------------------------------------------------------------------------------------------




--------------------------------------- Iteration      1(  25)  ---------------------------------------


    POTLOK:  cpu time    4.1938: real time    4.2229
    SETDIJ:  cpu time    0.0543: real time    0.0545
    TRIAL :  cpu time    1.1536: real time    1.1650
    CORREC:  cpu time    4.6893: real time    4.7232
    CHARGE:  cpu time    0.1783: real time    0.1802
    --------------------------------------------
      LOOP:  cpu time   10.3332: real time   10.4112

 eigenvalue-minimisations  :     0
 total energy-change (2. order) :-0.5879410E-06  (-0.2677236E-06)
 number of electron     216.0000000 magnetization 
 augmentation part       -0.4129185 magnetization 

 Free energy of the ion-electron system (eV)
  ---------------------------------------------------
  alpha Z        PSCENC =        47.94900195
  Ewald energy   TEWEN  =     48385.02047969
  -Hartree energ DENC   =    -55348.88587827
  -exchange      EXHF   =         0.00000000
  -V(xc)+E(xc)   XCENC  =       444.32499819
  PAW double counting   =    107249.63898066  -106956.16039980
  entropy T*S    EENTRO =        -0.00000000
  eigenvalues    EBANDS =     -2654.29764917
  atomic energy  EATOM  =      8415.03548706
  ---------------------------------------------------
  free energy    TOTEN  =      -417.37497968 eV

  energy without entropy =     -417.37497968  energy(sigma->0) =     -417.37497968


--------------------------------------------------------------------------------------------------------




--------------------------------------- Iteration      1(  26)  ---------------------------------------


    POTLOK:  cpu time    4.2142: real time    4.2440
    SETDIJ:  cpu time    0.0543: real time    0.0545
    TRIAL :  cpu time    1.1549: real time    1.1657
    CORREC:  cpu time    4.6924: real time    4.7270
    CHARGE:  cpu time    0.1780: real time    0.1797
    --------------------------------------------
      LOOP:  cpu time   10.3074: real time   10.3894

 eigenvalue-minimisations  :     0
 total energy-change (2. order) :-0.2731977E-06  (-0.1151812E-06)
 number of electron     216.0000000 magnetization 
 augmentation part       -0.4129182 magnetization 

 Free energy of the ion-electron system (eV)
  ---------------------------------------------------
  alpha Z        PSCENC =        47.94900195
  Ewald energy   TEWEN  =     48385.02047969
  -Hartree energ DENC   =    -55348.89337547
  -exchange      EXHF   =         0.00000000
  -V(xc)+E(xc)   XCENC  =       444.32520913
  PAW double counting   =    107249.87079576  -106956.39223099
  entropy T*S    EENTRO =        -0.00000000
  eigenvalues    EBANDS =     -2654.29034709
  atomic energy  EATOM  =      8415.03548706
  ---------------------------------------------------
  free energy    TOTEN  =      -417.37497995 eV

  energy without entropy =     -417.37497995  energy(sigma->0) =     -417.37497995


--------------------------------------------------------------------------------------------------------




--------------------------------------- Iteration      1(  27)  ---------------------------------------


    POTLOK:  cpu time    4.2229: real time    4.2552
    SETDIJ:  cpu time    0.0542: real time    0.0544
    TRIAL :  cpu time    1.1491: real time    1.1636
    CORREC:  cpu time    4.6791: real time    4.7132
    CHARGE:  cpu time    0.1783: real time    0.1800
    --------------------------------------------
      LOOP:  cpu time   10.3244: real time   10.4193

 eigenvalue-minimisations  :     0
 total energy-change (2. order) :-0.1166482E-06  (-0.5473014E-07)
 number of electron     216.0000000 magnetization 
 augmentation part       -0.4129166 magnetization 

 Free energy of the ion-electron system (eV)
  ---------------------------------------------------
  alpha Z        PSCENC =        47.94900195
  Ewald energy   TEWEN  =     48385.02047969
  -Hartree energ DENC   =    -55348.89394463
  -exchange      EXHF   =         0.00000000
  -V(xc)+E(xc)   XCENC  =       444.32515857
  PAW double counting   =    107250.04040572  -106956.56183021
  entropy T*S    EENTRO =        -0.00000000
  eigenvalues    EBANDS =     -2654.28973823
  atomic energy  EATOM  =      8415.03548706
  ---------------------------------------------------
  free energy    TOTEN  =      -417.37498007 eV

  energy without entropy =     -417.37498007  energy(sigma->0) =     -417.37498007


--------------------------------------------------------------------------------------------------------




--------------------------------------- Iteration      1(  28)  ---------------------------------------


    POTLOK:  cpu time    4.2103: real time    4.2414
    SETDIJ:  cpu time    0.0545: real time    0.0547
    TRIAL :  cpu time    1.1712: real time    1.1831
    CORREC:  cpu time    4.6908: real time    4.7268
    EDDIAG:  cpu time    0.4545: real time    0.4595
    CHARGE:  cpu time    0.1786: real time    0.1804
[...]
      21 -86.0160      22 -86.0235      23 -86.0480      24 -86.0399      25 -86.0305
      26 -86.0328      27 -86.0244      28 -86.0444      29 -86.0256      30 -86.0304
      31 -86.0559      32 -86.0426      33 -86.0421      34 -86.0332      35 -86.0295
      36 -86.0340      37 -86.0356      38 -86.0390      39 -86.0389      40 -86.0351
      41 -86.0369      42 -86.0412      43 -86.0337      44 -86.0411      45 -86.0289
      46 -86.0271      47 -86.0383      48 -86.0341      49 -86.0377      50 -86.0362
      51 -89.8514      52-120.3495      53-120.3613
 
 
 
 E-fermi :  -4.3692     XC(G=0):  -2.1755     alpha+bet : -1.6890

 Fermi energy:        -4.3691930011

 k-point     1 :       0.0000    0.0000    0.0000
  band No.  band energies     occupation 
      1     -27.6112      2.00000
      2     -26.6061      2.00000
      3     -22.4520      2.00000
      4     -21.5346      2.00000
      5     -21.5188      2.00000
      6     -21.5113      2.00000
      7     -21.5099      2.00000
      8     -21.5072      2.00000
      9     -21.5025      2.00000
     10     -19.6896      2.00000
     11     -19.6819      2.00000
     12     -19.6726      2.00000
     13     -19.6723      2.00000
     14     -19.6691      2.00000
     15     -19.6686      2.00000
     16     -18.7905      2.00000
     17     -18.7844      2.00000
     18     -18.7796      2.00000
     19     -18.7782      2.00000
     20     -18.7755      2.00000
     21     -18.7746      2.00000
     22     -16.6294      2.00000
     23     -16.6257      2.00000
     24     -16.6196      2.00000
     25     -16.6173      2.00000
     26     -16.6127      2.00000
     27     -16.6117      2.00000
     28     -15.6489      2.00000
     29     -15.6455      2.00000
     30     -15.6394      2.00000
     31     -15.6388      2.00000
     32     -15.6360      2.00000
     33     -15.6351      2.00000
     34     -14.2973      2.00000
     35     -14.2944      2.00000
     36     -14.2923      2.00000
     37     -14.2903      2.00000
     38     -14.2889      2.00000
     39     -14.2884      2.00000
     40     -12.5067      2.00000
     41     -11.9243      2.00000
     42     -11.9205      2.00000
     43     -11.9134      2.00000
     44     -11.9122      2.00000
     45     -11.9118      2.00000
     46     -11.9087      2.00000
     47     -11.8318      2.00000
     48     -11.8256      2.00000
     49     -11.8234      2.00000
     50     -11.8224      2.00000
     51     -11.8174      2.00000
     52     -11.8163      2.00000
     53     -11.5352      2.00000
     54     -11.3532      2.00000
     55     -11.2784      2.00000
     56     -10.5221      2.00000
     57     -10.4528      2.00000
     58     -10.4522      2.00000
     59     -10.4504      2.00000
     60     -10.4499      2.00000
     61     -10.4491      2.00000
     62     -10.4472      2.00000
     63      -9.4905      2.00000
     64      -9.4870      2.00000
     65      -9.4852      2.00000
     66      -9.4838      2.00000
     67      -9.4804      2.00000
     68      -9.3045      2.00000
     69      -9.1918      2.00000
     70      -9.1879      2.00000
     71      -9.1864      2.00000
     72      -9.1854      2.00000
     73      -9.1841      2.00000
     74      -9.1820      2.00000
     75      -9.1309      2.00000
     76      -9.1293      2.00000
     77      -9.1281      2.00000
     78      -9.1258      2.00000
     79      -9.1254      2.00000
     80      -9.1227      2.00000
     81      -7.9302      2.00000
     82      -7.7660      2.00000
     83      -7.5410      2.00000
     84      -7.5386      2.00000
     85      -7.5376      2.00000
     86      -7.5332      2.00000
     87      -7.5325      2.00000
     88      -7.5317      2.00000
     89      -7.3668      2.00000
     90      -7.3544      2.00000
     91      -7.3517      2.00000
     92      -7.3290      2.00000
     93      -7.3185      2.00000
     94      -7.1605      2.00000
     95      -6.4700      2.00000
     96      -6.4664      2.00000
     97      -6.4578      2.00000
     98      -6.4508      2.00000
     99      -6.4372      2.00000
    100      -6.3502      2.00000
    101      -6.0582      2.00000
    102      -6.0557      2.00000
    103      -4.4955      2.00000
    104      -4.4870      2.00000
    105      -4.4770      2.00000
    106      -4.4722      2.00000
    107      -4.4707      2.00000
    108      -4.4650      2.00000
    109      -1.7147      0.00000
    110      -1.7025      0.00000
    111      -1.6800      0.00000
    112      -1.6759      0.00000
    113      -1.6726      0.00000
    114      -1.6617      0.00000
    115      -0.2034      0.00000
    116       0.1511      0.00000
    117       0.1537      0.00000
    118       0.1629      0.00000
    119       0.1749      0.00000
    120       0.1824      0.00000
    121       0.1944      0.00000
    122       0.4721      0.00000
    123       0.8850      0.00000
    124       1.1187      0.00000
    125       1.1204      0.00000
    126       1.1502      0.00000
    127       1.1832      0.00000
    128       1.2188      0.00000
    129       1.2538      0.00000
    130       1.2673      0.00000
    131       1.6140      0.00000
    132       1.6938      0.00000
    133       1.7426      0.00000
    134       1.8497      0.00000
    135       1.9059      0.00000
    136       1.9241      0.00000


--------------------------------------------------------------------------------------------------------


 soft charge-density along one line, spin component           1
         0         1         2         3         4         5         6         7         8         9
 total charge-density along one line
 
 pseudopotential strength for first ion, spin component:           1
 12.722  21.409  -0.000   0.000   0.000  -0.000   0.000   0.000
 21.409  36.026  -0.000   0.000   0.000  -0.000   0.000   0.000
 -0.000  -0.000  -3.197  -0.000   0.000  -5.729  -0.000   0.000
  0.000   0.000  -0.000  -3.199  -0.000  -0.000  -5.733  -0.000
  0.000   0.000   0.000  -0.000  -3.197   0.000  -0.000  -5.729
 -0.000  -0.000  -5.729  -0.000   0.000 -10.247  -0.000   0.000
  0.000   0.000  -0.000  -5.733  -0.000  -0.000 -10.253  -0.000
  0.000   0.000   0.000  -0.000  -5.729   0.000  -0.000 -10.247
 total augmentation occupancy for first ion, spin component:           1
  7.651  -2.659  -0.001  -0.002   0.000   0.000   0.001  -0.000
 -2.659   0.962   0.000   0.001  -0.000  -0.000  -0.000   0.000
 -0.001   0.000   7.067  -0.008   0.000  -2.369   0.003  -0.000
 -0.002   0.001  -0.008   3.112  -0.000   0.003  -0.813   0.000
  0.000  -0.000   0.000  -0.000   7.067  -0.000   0.000  -2.369
  0.000  -0.000  -2.369   0.003  -0.000   0.809  -0.001   0.000
  0.001  -0.000   0.003  -0.813   0.000  -0.001   0.219   0.000
 -0.000   0.000  -0.000   0.000  -2.369   0.000   0.000   0.809


------------------------ aborting loop because EDIFF is reached ----------------------------------------


    FORLOC:  cpu time    0.0658: real time    0.0664
    FORNL :  cpu time    0.8417: real time    0.8467
    FORCOR:  cpu time    4.2687: real time    4.3168
    OFIELD:  cpu time    0.0018: real time    0.0018

 VOLUME and BASIS-vectors are now :
 -----------------------------------------------------------------------------
  energy-cutoff  :     1000.00
  volume of cell :     3288.85
      direct lattice vectors                 reciprocal lattice vectors
    12.325000000  0.000000000  0.000000000     0.081135903  0.046843835  0.000000000
    -6.162500000 10.673763102  0.000000000     0.000000000  0.093687670  0.000000000
     0.000000000  0.000000000 25.000000000     0.000000000  0.000000000  0.040000000

  length of vectors
    12.325000000 12.325000000 25.000000000     0.093687670  0.093687670  0.040000000


 FORCES acting on ions:
    Electron-Ion                     Ewald-Force                    Non-Local-Force
 -----------------------------------------------------------------------------------------------
   0.139E+02 0.122E+02 0.243E+02   -.139E+02 -.122E+02 -.243E+02   0.138E-01 -.105E-01 0.197E-01
   0.239E+02 0.120E+02 0.335E+02   -.239E+02 -.120E+02 -.335E+02   0.241E-01 -.172E-01 -.561E-04
   0.125E+02 0.313E+02 0.435E+02   -.125E+02 -.314E+02 -.435E+02   0.626E-03 0.670E-01 0.626E-01
   0.219E+02 0.323E+02 0.783E+02   -.220E+02 -.323E+02 -.785E+02   0.108E+00 0.474E-01 0.984E-01
   0.153E+02 0.363E+01 0.244E+02   -.153E+02 -.361E+01 -.244E+02   0.181E-03 -.221E-01 -.699E-03
   0.161E+02 -.264E+01 0.251E+02   -.161E+02 0.266E+01 -.251E+02   -.335E-01 -.863E-02 -.731E-02
   0.358E+02 0.155E+02 0.649E+02   -.359E+02 -.154E+02 -.649E+02   0.633E-01 -.111E+00 -.794E-01
   0.363E+02 -.118E+02 0.712E+02   -.362E+02 0.119E+02 -.711E+02   -.444E-01 -.346E-01 -.314E+00
   -.136E+02 0.297E+02 0.458E+02   0.136E+02 -.297E+02 -.458E+02   -.256E-01 -.121E-01 -.690E-01
   -.273E+02 0.236E+02 0.780E+02   0.274E+02 -.237E+02 -.779E+02   -.698E-01 0.257E-01 -.354E+00
   0.366E+01 -.315E+01 0.190E+02   -.364E+01 0.312E+01 -.190E+02   -.981E-02 0.787E-02 -.587E-02
   0.285E+01 -.229E+01 0.176E+02   -.285E+01 0.229E+01 -.176E+02   -.181E-01 0.777E-02 0.158E-02
   0.133E+02 -.345E+02 0.840E+02   -.134E+02 0.345E+02 -.839E+02   0.135E+00 0.309E-01 -.382E+00
   0.559E+01 -.321E+02 0.446E+02   -.564E+01 0.320E+02 -.445E+02   0.346E-01 -.423E-02 -.520E-01
   -.137E+02 0.865E+01 0.240E+02   0.137E+02 -.863E+01 -.240E+02   0.221E-01 -.125E-01 -.174E-02
   -.209E+02 0.579E+01 0.291E+02   0.209E+02 -.579E+01 -.291E+02   0.549E-02 0.500E-02 -.212E-01
   -.192E+01 -.797E+00 0.168E+02   0.193E+01 0.793E+00 -.168E+02   -.236E-02 -.447E-02 0.178E-02
   0.111E+01 0.720E+01 0.181E+02   -.111E+01 -.720E+01 -.181E+02   -.106E-01 0.455E-02 0.858E-02
   -.440E+01 -.248E+02 0.316E+02   0.438E+01 0.248E+02 -.316E+02   0.423E-01 -.102E-04 0.292E-01
   -.173E+01 -.113E+02 0.203E+02   0.173E+01 0.113E+02 -.203E+02   0.236E-02 -.426E-02 -.499E-03
   0.256E+02 -.110E+02 0.372E+02   -.255E+02 0.110E+02 -.371E+02   -.139E-01 -.303E-02 -.509E-01
   0.144E+02 -.125E+02 0.273E+02   -.144E+02 0.125E+02 -.273E+02   -.194E-01 0.290E-01 -.613E-02
   -.650E+01 0.165E+02 0.110E+03   0.667E+01 -.166E+02 -.110E+03   -.179E+00 0.118E+00 -.177E+00
   -.137E+02 -.264E+02 0.101E+03   0.136E+02 0.265E+02 -.101E+03   0.123E+00 -.127E+00 -.107E+00
   0.631E+01 -.285E+01 0.192E+02   -.628E+01 0.285E+01 -.192E+02   -.182E-01 0.403E-02 -.919E-02
   0.110E+01 0.569E+01 0.194E+02   -.109E+01 -.569E+01 -.194E+02   -.145E-01 0.599E-02 -.151E-02
   -.348E+02 0.357E+01 0.522E+02   0.348E+02 -.364E+01 -.522E+02   0.892E-02 0.403E-01 -.972E-01
   -.307E+02 -.136E+02 0.450E+02   0.307E+02 0.135E+02 -.450E+02   -.518E-01 0.497E-01 0.328E-01
   0.878E+01 -.182E+02 0.289E+02   -.879E+01 0.181E+02 -.289E+02   0.593E-02 0.191E-01 -.121E-01
   0.814E+00 -.636E+01 0.206E+02   -.834E+00 0.634E+01 -.206E+02   0.694E-02 0.156E-01 -.885E-02
   -.260E+02 -.284E+02 0.583E+02   0.261E+02 0.285E+02 -.584E+02   -.787E-01 -.542E-01 0.110E+00
   -.136E+02 -.246E+02 0.343E+02   0.136E+02 0.246E+02 -.343E+02   -.304E-02 -.398E-01 0.381E-01
   0.707E+00 0.296E+01 0.174E+02   -.708E+00 -.296E+01 -.174E+02   0.116E-01 -.109E-01 0.339E-02
   0.208E+01 0.303E+01 0.190E+02   -.208E+01 -.300E+01 -.190E+02   0.110E-02 -.110E-01 -.625E-02
   -.945E+01 0.109E+01 0.212E+02   0.944E+01 -.110E+01 -.212E+02   0.152E-01 0.251E-02 -.177E-02
   -.802E+01 -.317E+01 0.205E+02   0.803E+01 0.316E+01 -.205E+02   -.120E-01 0.107E-01 -.351E-02
   -.167E+02 -.874E+01 0.252E+02   0.167E+02 0.874E+01 -.252E+02   -.189E-01 0.380E-02 0.280E-02
   -.928E+01 -.757E+01 0.201E+02   0.929E+01 0.757E+01 -.201E+02   -.118E-01 0.389E-02 0.114E-01
   -.880E+01 -.116E+02 0.218E+02   0.881E+01 0.116E+02 -.218E+02   -.123E-01 -.124E-01 0.752E-02
   -.128E+01 -.267E+01 0.180E+02   0.127E+01 0.268E+01 -.180E+02   -.687E-03 -.158E-02 0.760E-02
   0.330E+01 0.780E+01 0.190E+02   -.329E+01 -.781E+01 -.190E+02   -.242E-02 0.128E-01 0.766E-02
   0.113E+02 0.177E+02 0.263E+02   -.113E+02 -.177E+02 -.263E+02   0.156E-01 0.201E-01 0.185E-01
   0.886E+00 0.142E+02 0.217E+02   -.876E+00 -.142E+02 -.217E+02   -.792E-02 0.109E-01 0.115E-03
   0.400E+00 0.287E+02 0.361E+02   -.365E+00 -.287E+02 -.361E+02   -.516E-01 0.122E-01 0.303E-01
   -.271E+01 0.543E+01 0.207E+02   0.271E+01 -.542E+01 -.207E+02   0.151E-02 -.102E-01 -.639E-02
   -.118E+02 0.152E+02 0.275E+02   0.118E+02 -.152E+02 -.275E+02   -.134E-02 -.482E-02 -.147E-01
   -.185E+01 -.528E+01 0.188E+02   0.184E+01 0.528E+01 -.188E+02   0.168E-01 0.190E-02 0.785E-03
   -.495E+01 0.205E+01 0.180E+02   0.493E+01 -.205E+01 -.180E+02   0.135E-01 -.205E-02 -.792E-02
   0.360E+00 -.327E+01 0.176E+02   -.353E+00 0.326E+01 -.176E+02   0.779E-02 -.235E-02 0.468E-02
   0.517E+01 0.381E+01 0.179E+02   -.517E+01 -.381E+01 -.179E+02   0.187E-02 0.787E-02 0.397E-02
   0.405E+00 -.219E+00 -.432E+03   -.388E+00 0.201E+00 0.432E+03   -.371E-01 0.159E-01 -.962E-01
   -.229E+03 0.155E+03 -.662E+03   0.279E+03 -.189E+03 0.665E+03   -.506E+02 0.346E+02 -.233E+01
   0.229E+03 -.155E+03 -.639E+03   -.279E+03 0.189E+03 0.636E+03   0.506E+02 -.347E+02 0.404E+01
 -----------------------------------------------------------------------------------------------
   0.684E-01 0.194E-01 -.327E+00   0.171E-12 -.142E-12 0.114E-12   -.687E-01 -.194E-01 0.323E+00
 
 
 POSITION                                       TOTAL-FORCE (eV/Angst)
 -----------------------------------------------------------------------------------
     11.98348      0.00342      0.01417        -0.000304     -0.004211      0.001518
     -0.34154      1.42665      0.01100         0.017016      0.012501      0.003642
      2.12355      0.00315      0.01249         0.008276     -0.019117      0.014901
      2.12326      1.42653      0.00641        -0.009899      0.010366     -0.055225
     10.75099      2.13819      0.01213        -0.001985     -0.003261      0.005055
     -1.57382      3.56123      0.01110        -0.007778      0.008610      0.004470
      0.89078      2.13854      0.00548        -0.026208      0.012349     -0.052814
      0.89099      3.56147      0.00181        -0.029180      0.029783     -0.145309
      4.58864      0.00346      0.01135         0.013269      0.054669     -0.011646
      4.58894      1.42623      0.00646         0.041147     -0.035879     -0.192979
      9.51854      4.27281      0.01369         0.009151     -0.016229      0.000557
     -2.80632      5.69591      0.01434        -0.017227      0.010155      0.000989
      2.12300      4.27302      0.00000        -0.028179      0.075535     -0.240587
      2.12335      5.69594      0.00581        -0.008533     -0.066234     -0.009428
      7.05344      0.00333      0.01399         0.003146     -0.000678      0.005639
      7.05353      1.42635      0.01368        -0.008285      0.007514      0.004095
      8.28610      6.40752      0.01601         0.006365     -0.007928     -0.000085
     -4.03885      7.83070      0.01636        -0.009700      0.009539      0.000233
      3.35586      6.40753      0.01007         0.014742      0.006146      0.008777
      3.35599      7.83072      0.01320        -0.003405     -0.007033      0.001061
     -0.34146      4.27290      0.00723         0.039460     -0.024523     -0.000947
     -0.34138      5.69591      0.00946        -0.007401      0.007820      0.009227
      3.35624      2.13791      0.00222        -0.003872     -0.019562     -0.368448
      3.35573      3.56155      0.00139         0.021371      0.040804     -0.253498
     -1.57395      6.40758      0.01311         0.017444     -0.000912     -0.000627
     -1.57385      7.83068      0.01438        -0.005107      0.003530      0.000388
      5.82093      2.13784      0.01033        -0.031496     -0.032282     -0.027863
      5.82114      3.56097      0.01156         0.000520      0.000758      0.011499
      0.89092      6.40755      0.00907        -0.000927      0.000763      0.008630
      0.89106      7.83068      0.01235        -0.013222     -0.005122      0.000649
      4.58871      4.27293      0.00850        -0.002249     -0.019261      0.006330
      4.58852      5.69606      0.01149        -0.002211      0.020942      0.008096
      9.51845      0.00337      0.01490         0.010399     -0.009611      0.000338
      9.51855      1.42644      0.01438        -0.004465      0.016495     -0.000215
      8.28593      2.13803      0.01453         0.002177     -0.009924      0.002212
      8.28613      3.56115      0.01464        -0.004008      0.002563      0.000933
      7.05356      4.27269      0.01457        -0.002124     -0.003485      0.003252
      7.05362      5.69588      0.01553        -0.003371      0.003015      0.000264
      5.82112      6.40755      0.01489        -0.001121     -0.003370     -0.000106
      5.82102      7.83073      0.01579        -0.008220      0.007146     -0.000134
      7.05363      8.54227      0.01631         0.005909     -0.005161      0.001156
     -5.27149      9.96549      0.01495        -0.000649      0.000923     -0.000215
     -2.80638      8.54234      0.01558         0.001909      0.004141      0.000901
     -2.80627      9.96553      0.01362        -0.014775     -0.003206      0.011175
     -0.34149      8.54239      0.01378         0.007665      0.001147      0.001243
     -0.34138      9.96550      0.01354        -0.008372      0.004171      0.006329
      2.12343      8.54232      0.01336         0.008685      0.001024      0.000729
      2.12354      9.96544      0.01469        -0.009501      0.001115     -0.001882
      4.58846      8.54235      0.01505         0.015037     -0.010613      0.001331
      4.58853      9.96550      0.01517        -0.001822      0.009223      0.001151
      3.04930      2.68154      2.64866        -0.019097     -0.001990      0.234311
      4.02070      2.02068      2.71308        -0.464069      0.361777      0.423149
      2.07767      3.34267      2.58920         0.515071     -0.414934      0.577778
 -----------------------------------------------------------------------------------
    total drift:                               -0.000280      0.000001     -0.004131


--------------------------------------------------------------------------------------------------------



  FREE ENERGIE OF THE ION-ELECTRON SYSTEM (eV)
  ---------------------------------------------------
  free  energy   TOTEN  =      -417.37498012 eV

  energy  without entropy=     -417.37498012  energy(sigma->0) =     -417.37498012
 


--------------------------------------------------------------------------------------------------------


    POTLOK:  cpu time    4.2657: real time    4.3145


--------------------------------------------------------------------------------------------------------


 writing wavefunctions
     LOOP+:  cpu time  294.1717: real time  297.2266
    4ORBIT:  cpu time    0.0000: real time    0.0000

 total amount of memory used by VASP MPI-rank0   100580. kBytes
=======================================================================

   base      :      30000. kBytes
   nonl-proj :       8229. kBytes
   fftplans  :      18352. kBytes
   grid      :      30208. kBytes
   one-center:          6. kBytes
   wavefun   :      13785. kBytes
 
  
  
 General timing and accounting informations for this job:
 ========================================================
  
                  Total CPU time used (sec):      337.062
                            User time (sec):      310.590
                          System time (sec):       26.473
                         Elapsed time (sec):      341.398
  
                   Maximum memory used (kb):      819136.
                   Average memory used (kb):          N/A
  
                          Minor page faults:       414023
                          Major page faults:           87
                 Voluntary context switches:         4064
