 vasp.6.2.1 16May21 (build Nov 06 2021 14:46:37) complex                        
  
 executed on             LinuxIFC date 2025.04.16  17:55:07
 running on  112 total cores
 distrk:  each k-point on  112 cores,    1 groups
 distr:  one band on NCORE=  28 cores,    4 groups


--------------------------------------------------------------------------------------------------------


 INCAR:
   ALGO = Conjugate
   NPAR = 4
   ISMEAR = 0
   SIGMA = 0.01
   PREC = Accurate
   EDIFF = 1E-7
   ENCUT = 1000
   ISIF = 0
   GGA = MK
   PARAM1 = 0.1234
   PARAM2 = 1.0000
   LUSE_VDW = .TRUE.
   AGGAC = 0.0000
   LASPH = .TRUE.
   SYMPREC = 1E-7

 POTCAR:    PAW_PBE C_h 06Feb2004                 
 POTCAR:    PAW_PBE O_h 06Feb2004                 
 -----------------------------------------------------------------------------
|                                                                             |
|           W    W    AA    RRRRR   N    N  II  N    N   GGGG   !!!           |
|           W    W   A  A   R    R  NN   N  II  NN   N  G    G  !!!           |
|           W    W  A    A  R    R  N N  N  II  N N  N  G       !!!           |
|           W WW W  AAAAAA  RRRRR   N  N N  II  N  N N  G  GGG   !            |
|           WW  WW  A    A  R   R   N   NN  II  N   NN  G    G                |
|           W    W  A    A  R    R  N    N  II  N    N   GGGG   !!!           |
|                                                                             |
|     For optimal performance we recommend to set                             |
|       NCORE = 2 up to number-of-cores-per-socket                            |
|     NCORE specifies how many cores store one orbital (NPAR=cpu/NCORE).      |
|     This setting can greatly improve the performance of VASP for DFT.       |
|     The default, NCORE=1 might be grossly inefficient on modern             |
|     multi-core architectures or massively parallel machines. Do your        |
|     own testing! More info at https://www.vasp.at/wiki/index.php/NCORE      |
|     Unfortunately you need to use the default for GW and RPA                |
|     calculations (for HF NCORE is supported but not extensively tested      |
|     yet).                                                                   |
|                                                                             |
 -----------------------------------------------------------------------------

 -----------------------------------------------------------------------------
|                                                                             |
|               ----> ADVICE to this user running VASP <----                  |
|                                                                             |
|     You have switched on vdW-DFT.                                           |
|     This routine was written and supplied by Jiri Klimes. We recommend      |
|     that you carefully read and cite the following publications:            |
|       J. Klimes, D.R. Bowler, A. Michelides                                 |
|          J. Phys.: Cond Matt. 22 022201 (2010)                              |
|       J. Klimes, D.R. Bowler, A. Michelides                                 |
|          Phys. Rev. B. 83, 195131 (2011)                                    |
|     and references therein.                                                 |
|                                                                             |
 -----------------------------------------------------------------------------

 POTCAR:    PAW_PBE C_h 06Feb2004                 
   VRHFIN =C: s2p2                                                                                  
   LEXCH  = PE                                                                                      
   EATOM  =   147.1560 eV,   10.8157 Ry                                                             
                                                                                                    
   TITEL  = PAW_PBE C_h 06Feb2004                                                                   
   LULTRA =        F    use ultrasoft PP ?                                                          
   IUNSCR =        1    unscreen: 0-lin 1-nonlin 2-no                                               
   RPACOR =    0.800    partial core radius                                                         
   POMASS =   12.011; ZVAL   =    4.000    mass and valenz                                          
   RCORE  =    1.100    outmost cutoff radius                                                       
   RWIGS  =    1.630; RWIGS  =    0.863    wigner-seitz radius (au A)                               
   ENMAX  =  700.000; ENMIN  =  500.000 eV                                                          
   ICORE  =        2    local potential                                                             
   LCOR   =        T    correct aug charges                                                         
   LPAW   =        T    paw PP                                                                      
   EAUG   =  946.768                                                                                
   DEXC   =    0.000                                                                                
   RMAX   =    1.128    core radius for proj-oper                                                   
   RAUG   =    1.300    factor for augmentation sphere                                              
   RDEP   =    1.162    radius for radial grids                                                     
   RDEPT  =    1.088    core radius for aug-charge                                                  
                                                                                                    
   Atomic configuration                                                                             
    4 entries                                                                                       
     n  l   j            E        occ.                                                              
     1  0  0.50      -273.3789   2.0000                                                             
     2  0  0.50       -13.7508   2.0000                                                             
     2  1  0.50        -5.2854   2.0000                                                             
     3  2  1.50        -5.4423   0.0000                                                             
   Description                                                                                      
     l       E           TYP  RCUT    TYP  RCUT                                                     
     0    -13.7508458     23  1.100                                                                 
     0     -8.2022199     23  1.100                                                                 
     1     -5.2854383     23  1.100                                                                 
     1      1.1560700     23  1.100                                                                 
     2     -5.4423304      7  1.100                                                                 
  local pseudopotential read in
  partial core-charges read in
  partial kinetic energy density read in
  atomic valenz-charges read in
  non local Contribution for L=           0  read in
    real space projection operators read in
  non local Contribution for L=           0  read in
    real space projection operators read in
  non local Contribution for L=           1  read in
    real space projection operators read in
  non local Contribution for L=           1  read in
    real space projection operators read in
    PAW grid and wavefunctions read in
 
   number of l-projection  operators is LMAX  =           4
   number of lm-projection operators is LMMAX =           8
 
 POTCAR:    PAW_PBE O_h 06Feb2004                 
   VRHFIN =O: s2p4                                                                                  
   LEXCH  = PE                                                                                      
   EATOM  =   432.3788 eV,   31.7789 Ry                                                             
                                                                                                    
   TITEL  = PAW_PBE O_h 06Feb2004                                                                   
   LULTRA =        F    use ultrasoft PP ?                                                          
   IUNSCR =        1    unscreen: 0-lin 1-nonlin 2-no                                               
   RPACOR =    0.800    partial core radius                                                         
   POMASS =   16.000; ZVAL   =    6.000    mass and valenz                                          
   RCORE  =    1.100    outmost cutoff radius                                                       
   RWIGS  =    1.400; RWIGS  =    0.741    wigner-seitz radius (au A)                               
   ENMAX  =  700.000; ENMIN  =  500.000 eV                                                          
   ICORE  =        2    local potential                                                             
   LCOR   =        T    correct aug charges                                                         
   LPAW   =        T    paw PP                                                                      
   EAUG   =  888.804                                                                                
   DEXC   =    0.000                                                                                
   RMAX   =    1.128    core radius for proj-oper                                                   
   RAUG   =    1.300    factor for augmentation sphere                                              
   RDEP   =    1.125    radius for radial grids                                                     
   RDEPT  =    1.088    core radius for aug-charge                                                  
                                                                                                    
   Atomic configuration                                                                             
    4 entries                                                                                       
     n  l   j            E        occ.                                                              
     1  0  0.50      -514.6923   2.0000                                                             
     2  0  0.50       -23.9615   2.0000                                                             
     2  1  0.50        -9.0305   4.0000                                                             
     3  2  1.50        -9.5241   0.0000                                                             
   Description                                                                                      
     l       E           TYP  RCUT    TYP  RCUT                                                     
     0    -23.9615319     23  1.100                                                                 
     0    -25.3221145     23  1.100                                                                 
     1     -9.0304911     23  1.100                                                                 
     1     -5.4802209     23  1.100                                                                 
     2     -9.5240782      7  1.100                                                                 
  local pseudopotential read in
  partial core-charges read in
  partial kinetic energy density read in
  atomic valenz-charges read in
  non local Contribution for L=           0  read in
    real space projection operators read in
  non local Contribution for L=           0  read in
    real space projection operators read in
  non local Contribution for L=           1  read in
    real space projection operators read in
  non local Contribution for L=           1  read in
    real space projection operators read in
    PAW grid and wavefunctions read in
 
   number of l-projection  operators is LMAX  =           4
   number of lm-projection operators is LMMAX =           8
 
 -----------------------------------------------------------------------------
|                                                                             |
|               ----> ADVICE to this user running VASP <----                  |
|                                                                             |
|     You have a (more or less) 'large supercell' and for larger cells it     |
|     might be more efficient to use real-space projection operators.         |
|     Therefore, try LREAL= Auto in the INCAR file.                           |
|     Mind: For very accurate calculation, you might also keep the            |
|     reciprocal projection scheme (i.e. LREAL=.FALSE.).                      |
|                                                                             |
 -----------------------------------------------------------------------------

 -----------------------------------------------------------------------------
|                                                                             |
|               ----> ADVICE to this user running VASP <----                  |
|                                                                             |
|     You enforced a specific xc type in the INCAR file but a different       |
|     type was found in the POTCAR file.                                      |
|     I HOPE YOU KNOW WHAT YOU ARE DOING!                                     |
|                                                                             |
 -----------------------------------------------------------------------------

  PAW_PBE C_h 06Feb2004                 :
 energy of atom  1       EATOM= -147.1560
 kinetic energy error for atom=    0.0031 (will be added to EATOM!!)
  PAW_PBE O_h 06Feb2004                 :
 energy of atom  2       EATOM= -432.3788
 kinetic energy error for atom=    0.0171 (will be added to EATOM!!)
 
 
 POSCAR:  C  O
  positions in cartesian coordinates
  No initial velocities read in
 exchange correlation table for  LEXCH =       43
   RHO(1)=    0.500       N(1)  =     2000
   RHO(2)=  100.500       N(2)  =     4000
 


--------------------------------------------------------------------------------------------------------


 ion  position               nearest neighbor table
   1  0.972  0.000  0.001-  50 1.42   2 1.42  42 1.42
   2  0.039  0.134  0.000-   5 1.42   7 1.42   1 1.42
   3  0.172  0.000  0.000-  42 1.42  44 1.42   4 1.42
   4  0.239  0.134  0.000-   7 1.42   3 1.42  23 1.42
   5  0.972  0.200  0.000-   6 1.42   2 1.42  34 1.42
   6  0.039  0.334  0.000-   5 1.42  21 1.42  11 1.42
   7  0.172  0.200  0.000-   8 1.42   2 1.42   4 1.42
   8  0.239  0.334  0.000-  13 1.42   7 1.42  21 1.42
   9  0.372  0.000  0.000-  10 1.42  44 1.42  46 1.42
  10  0.439  0.134  0.000-  27 1.42   9 1.42  23 1.42
  11  0.972  0.400  0.001-  12 1.42  36 1.42   6 1.42
  12  0.039  0.534  0.001-  25 1.42  11 1.42  17 1.42
  13  0.372  0.400  0.000-   8 1.42  14 1.42  24 1.42
  14  0.439  0.534  0.000-  13 1.42  29 1.42  19 1.42
  15  0.572  0.000  0.001-  46 1.42  16 1.42  48 1.42
  16  0.639  0.134  0.001-  15 1.42  35 1.42  27 1.42
  17  0.972  0.600  0.001-  38 1.42  18 1.42  12 1.42
  18  0.039  0.734  0.001-  43 1.42  41 1.42  17 1.42
  19  0.572  0.600  0.000-  14 1.42  20 1.42  32 1.42
  20  0.639  0.734  0.001-  49 1.42  19 1.42  47 1.42
  21  0.172  0.400  0.000-  22 1.42   8 1.42   6 1.42
  22  0.239  0.534  0.000-  21 1.42  29 1.42  25 1.42
  23  0.372  0.200  0.000-  10 1.42   4 1.42  24 1.42
  24  0.439  0.334  0.000-  13 1.42  31 1.42  23 1.42
  25  0.172  0.600  0.001-  26 1.42  12 1.42  22 1.42
  26  0.239  0.734  0.001-  25 1.42  45 1.42  43 1.42
  27  0.572  0.200  0.000-  10 1.42  28 1.42  16 1.42
  28  0.639  0.334  0.000-  27 1.42  37 1.42  31 1.42
  29  0.372  0.600  0.000-  22 1.42  14 1.42  30 1.42
  30  0.439  0.734  0.000-  47 1.42  29 1.42  45 1.42
  31  0.572  0.400  0.000-  32 1.42  28 1.42  24 1.42
  32  0.639  0.534  0.000-  31 1.42  39 1.42  19 1.42
  33  0.772  0.000  0.001-  34 1.42  48 1.42  50 1.42
  34  0.839  0.134  0.001-  33 1.42   5 1.42  35 1.42
  35  0.772  0.200  0.001-  36 1.42  16 1.42  34 1.42
  36  0.839  0.334  0.001-  35 1.42  11 1.42  37 1.42
  37  0.772  0.400  0.001-  28 1.42  38 1.42  36 1.42
  38  0.839  0.534  0.001-  17 1.42  37 1.42  39 1.42
  39  0.772  0.600  0.001-  40 1.42  38 1.42  32 1.42
  40  0.839  0.734  0.001-  39 1.42  49 1.42  41 1.42
  41  0.972  0.800  0.001-  18 1.42  42 1.42  40 1.42
  42  0.039  0.934  0.001-   3 1.42  41 1.42   1 1.42
  43  0.172  0.800  0.001-  18 1.42  44 1.42  26 1.42
  44  0.239  0.934  0.001-   9 1.42  43 1.42   3 1.42
  45  0.372  0.800  0.001-  26 1.42  46 1.42  30 1.42
  46  0.439  0.934  0.001-  15 1.42  45 1.42   9 1.42
  47  0.572  0.800  0.001-  30 1.42  48 1.42  20 1.42
  48  0.639  0.934  0.001-  47 1.42  33 1.42  15 1.42
  49  0.772  0.800  0.001-  50 1.42  20 1.42  40 1.42
  50  0.839  0.934  0.001-  49 1.42   1 1.42  33 1.42
  51  0.373  0.251  0.200-  52 1.18  53 1.18
  52  0.421  0.189  0.203-  51 1.18
  53  0.325  0.313  0.198-  51 1.18
 
  LATTYP: Found a hexagonal cell.
 ALAT       =    12.3250000000
 C/A-ratio  =     2.0283975659
  
  Lattice vectors:
  
 A1 = (  12.3250000000,   0.0000000000,   0.0000000000)
 A2 = (  -6.1625000000,  10.6737631016,   0.0000000000)
 A3 = (   0.0000000000,   0.0000000000,  25.0000000000)


Analysis of symmetry for initial positions (statically):
=====================================================================
 Subroutine PRICEL returns:
 Original cell was already a primitive cell.
 

 Routine SETGRP: Setting up the symmetry group for a 
 hexagonal supercell.


 Subroutine GETGRP returns: Found  1 space group operations
 (whereof  1 operations were pure point group operations)
 out of a pool of 24 trial point group operations.


The static configuration has the point symmetry C_1 .


Analysis of symmetry for dynamics (positions and initial velocities):
=====================================================================
 Subroutine PRICEL returns:
 Original cell was already a primitive cell.
 

 Routine SETGRP: Setting up the symmetry group for a 
 hexagonal supercell.


 Subroutine GETGRP returns: Found  1 space group operations
 (whereof  1 operations were pure point group operations)
 out of a pool of 24 trial point group operations.


The dynamic configuration has the point symmetry C_1 .


 Subroutine INISYM returns: Found  1 space group operations
 (whereof  1 operations are pure point group operations),
 and found     1 'primitive' translations


----------------------------------------------------------------------------------------

                                     Primitive cell                                     

  volume of cell :    3288.8533

  direct lattice vectors                    reciprocal lattice vectors
    12.325000000  0.000000000  0.000000000     0.081135903  0.046843835  0.000000000
    -6.162500000 10.673763102  0.000000000     0.000000000  0.093687670  0.000000000
     0.000000000  0.000000000 25.000000000     0.000000000  0.000000000  0.040000000

  length of vectors
    12.325000000 12.325000000 25.000000000     0.093687670  0.093687670  0.040000000

  position of ions in fractional coordinates (direct lattice)
     0.972450841  0.000320818  0.000566711
     0.039118382  0.133659505  0.000440173
     0.172443627  0.000295449  0.000499628
     0.239096278  0.133647917  0.000256468
     0.972452058  0.200322012  0.000485219
     0.039128360  0.333643771  0.000444150
     0.172451764  0.200354552  0.000219167
     0.239124359  0.333665720  0.000072260
     0.372465565  0.000324403  0.000453913
     0.439137473  0.133619939  0.000258338
     0.972449824  0.400309362  0.000547611
     0.039124981  0.533636789  0.000573410
     0.372416176  0.400329481  0.000000000
     0.439099602  0.533638981  0.000232414
     0.572443676  0.000312125  0.000559580
     0.639110207  0.133631751  0.000547275
     0.972452703  0.600305653  0.000640289
     0.039124495  0.733640359  0.000654513
     0.572433471  0.600306242  0.000402895
     0.639111888  0.733641879  0.000527905
     0.172454630  0.400318228  0.000289045
     0.239120185  0.533636548  0.000378509
     0.372459750  0.200295993  0.000088997
     0.439107096  0.333673419  0.000055762
     0.172452155  0.600311506  0.000524340
     0.239123371  0.733638574  0.000575129
     0.572431082  0.200289171  0.000413296
     0.639112773  0.333618630  0.000462376
     0.372439808  0.600308022  0.000362844
     0.439116090  0.733637858  0.000494190
     0.572469358  0.400320504  0.000339918
     0.639119408  0.533650873  0.000459610
     0.772445723  0.000315427  0.000596161
     0.839116277  0.133640203  0.000575306
     0.772440513  0.200307432  0.000581033
     0.839120241  0.333635728  0.000585467
     0.772446320  0.400298367  0.000582978
     0.839118980  0.533633964  0.000621100
     0.772456143  0.600308173  0.000595712
     0.839115033  0.733643180  0.000631512
     0.972455313  0.800305582  0.000652233
     0.039114714  0.933643289  0.000598051
     0.172457971  0.800312211  0.000623372
     0.239134551  0.933647193  0.000544850
     0.372451396  0.800316674  0.000551399
     0.439124489  0.933644769  0.000541430
     0.572441101  0.800310054  0.000534535
     0.639115067  0.933638985  0.000587644
     0.772445098  0.800313187  0.000602062
     0.839116614  0.933644338  0.000606830
     0.373021009  0.251226878  0.200000000
     0.420879805  0.189313152  0.202576874
     0.325156981  0.313167186  0.197621805

  ion indices of the primitive-cell ions
   primitive index   ion index
                 1           1
                 2           2
                 3           3
                 4           4
                 5           5
                 6           6
                 7           7
                 8           8
                 9           9
                10          10
                11          11
                12          12
                13          13
                14          14
                15          15
                16          16
                17          17
                18          18
                19          19
                20          20
                21          21
                22          22
                23          23
                24          24
                25          25
                26          26
                27          27
                28          28
                29          29
                30          30
                31          31
                32          32
                33          33
                34          34
                35          35
                36          36
                37          37
                38          38
                39          39
                40          40
                41          41
                42          42
                43          43
                44          44
                45          45
                46          46
                47          47
                48          48
                49          49
                50          50
                51          51
                52          52
                53          53

----------------------------------------------------------------------------------------

 
 
 KPOINTS: auto                                    

Automatic generation of k-mesh.
 Grid dimensions read from file:
 generate k-points for:    1    1    1

 Generating k-lattice:

  Cartesian coordinates                     Fractional coordinates (reciprocal lattice)
     0.081135903  0.046843835  0.000000000     1.000000000 -0.000000000  0.000000000
     0.000000000  0.093687670  0.000000000     0.000000000  1.000000000  0.000000000
     0.000000000  0.000000000  0.040000000     0.000000000  0.000000000  1.000000000

  Length of vectors
     0.093687670  0.093687670  0.040000000

  Shift w.r.t. Gamma in fractional coordinates (k-lattice)
     0.000000000  0.000000000  0.000000000

 
 Subroutine IBZKPT returns following result:
 ===========================================
 
 Found      1 irreducible k-points:
 
 Following reciprocal coordinates:
            Coordinates               Weight
  0.000000  0.000000  0.000000      1.000000
 
 Following cartesian coordinates:
            Coordinates               Weight
  0.000000  0.000000  0.000000      1.000000
 


--------------------------------------------------------------------------------------------------------




 Dimension of arrays:
   k-points           NKPTS =      1   k-points in BZ     NKDIM =      1   number of bands    NBANDS=    136
   number of dos      NEDOS =    301   number of ions     NIONS =     53
   non local maximal  LDIM  =      4   non local SUM 2l+1 LMDIM =      8
   total plane-waves  NPLWV = ******
   max r-space proj   IRMAX =      1   max aug-charges    IRDMAX=  10008
   dimension x,y,z NGX =   128 NGY =  128 NGZ =  270
   dimension x,y,z NGXF=   256 NGYF=  256 NGZF=  540
   support grid    NGXF=   256 NGYF=  256 NGZF=  540
   ions per type =              51   2
   NGX,Y,Z   is equivalent  to a cutoff of  17.27, 17.27, 17.95 a.u.
   NGXF,Y,Z  is equivalent  to a cutoff of  34.53, 34.53, 35.91 a.u.

 SYSTEM =  unknown system                          
 POSCAR =   C  O                                   

 Startparameter for this run:
   NWRITE =      2    write-flag & timer
   PREC   = accura    normal or accurate (medium, high low for compatibility)
   ISTART =      0    job   : 0-new  1-cont  2-samecut
   ICHARG =      2    charge: 1-file 2-atom 10-const
   ISPIN  =      1    spin polarized calculation?
   LNONCOLLINEAR =      F non collinear calculations
   LSORBIT =      F    spin-orbit coupling
   INIWAV =      1    electr: 0-lowe 1-rand  2-diag
   LASPH  =      T    aspherical Exc in radial PAW
 Electronic Relaxation 1
   ENCUT  = 1000.0 eV  73.50 Ry    8.57 a.u.  31.78 31.78 64.46*2*pi/ulx,y,z
   ENINI  = 1000.0     initial cutoff
   ENAUG  =  946.8 eV  augmentation charge cutoff
   NELM   =     60;   NELMIN=  2; NELMDL= -5     # of ELM steps 
   EDIFF  = 0.1E-06   stopping-criterion for ELM
   LREAL  =      F    real-space projection
   NLSPLINE    = F    spline interpolate recip. space projectors
   LCOMPAT=      F    compatible to vasp.4.4
   GGA_COMPAT  = T    GGA compatible to vasp.4.4-vasp.4.6
   LMAXPAW     = -100 max onsite density
   LMAXMIX     =    2 max onsite mixed and CHGCAR
   VOSKOWN=      0    Vosko Wilk Nusair interpolation
   ROPT   =    0.00000   0.00000
 Ionic relaxation
   EDIFFG = 0.1E-05   stopping-criterion for IOM
   NSW    =      0    number of steps for IOM
   NBLOCK =      1;   KBLOCK =      1    inner block; outer block 
   IBRION =     -1    ionic relax: 0-MD 1-quasi-New 2-CG
   NFREE  =      0    steps in history (QN), initial steepest desc. (CG)
   ISIF   =      0    stress and relaxation
   IWAVPR =     10    prediction:  0-non 1-charg 2-wave 3-comb
   ISYM   =      2    0-nonsym 1-usesym 2-fastsym
   LCORR  =      T    Harris-Foulkes like correction to forces

   POTIM  = 0.5000    time-step for ionic-motion
   TEIN   =    0.0    initial temperature
   TEBEG  =    0.0;   TEEND  =   0.0 temperature during run
   SMASS  =  -3.00    Nose mass-parameter (am)
   estimated Nose-frequenzy (Omega)   =  0.10E-29 period in steps = 0.13E+47 mass=  -0.347E-26a.u.
   SCALEE = 1.0000    scale energy and forces
   NPACO  =    256;   APACO  = 16.0  distance and # of slots for P.C.
   PSTRESS=    0.0 pullay stress

  Mass of Ions in am
   POMASS =  12.01 16.00
  Ionic Valenz
   ZVAL   =   4.00  6.00
  Atomic Wigner-Seitz radii
   RWIGS  =  -1.00 -1.00
  virtual crystal weights 
   VCA    =   1.00  1.00
   NELECT =     216.0000    total number of electrons
   NUPDOWN=      -1.0000    fix difference up-down

 DOS related values:
   EMIN   =  10.00;   EMAX   =-10.00  energy-range for DOS
   EFERMI =   0.00
   ISMEAR =     0;   SIGMA  =   0.01  broadening in eV -4-tet -1-fermi 0-gaus

 Electronic relaxation 2 (details)
   IALGO  =     58    algorithm
   LDIAG  =      T    sub-space diagonalisation (order eigenvalues)
   LSUBROT=      F    optimize rotation matrix (better conditioning)
   TURBO    =      0    0=normal 1=particle mesh
   IRESTART =      0    0=no restart 2=restart with 2 vectors
   NREBOOT  =      0    no. of reboots
   NMIN     =      0    reboot dimension
   EREF     =   0.00    reference energy to select bands
   IMIX   =      4    mixing-type and parameters
     AMIX     =   0.40;   BMIX     =  1.00
     AMIX_MAG =   1.60;   BMIX_MAG =  1.00
     AMIN     =   0.10
     WC   =   100.;   INIMIX=   1;  MIXPRE=   1;  MAXMIX= -45

 Intra band minimization:
   WEIMIN = 0.0000     energy-eigenvalue tresh-hold
   EBREAK =  0.18E-09  absolut break condition
   DEPER  =   0.30     relativ break condition  

   TIME   =   0.40     timestep for ELM

  volume/ion in A,a.u.               =      62.05       418.76
  Fermi-wavevector in a.u.,A,eV,Ry     =   0.660508  1.248179  5.935820  0.436270
  Thomas-Fermi vector in A             =   1.732977
 
 Write flags
   LWAVE        =      T    write WAVECAR
   LDOWNSAMPLE  =      F    k-point downsampling of WAVECAR
   LCHARG       =      T    write CHGCAR
   LVTOT        =      F    write LOCPOT, total local potential
   LVHAR        =      F    write LOCPOT, Hartree potential only
   LELF         =      F    write electronic localiz. function (ELF)
   LORBIT       =      0    0 simple, 1 ext, 2 COOP (PROOUT), +10 PAW based schemes


 Dipole corrections
   LMONO  =      F    monopole corrections only (constant potential shift)
   LDIPOL =      F    correct potential (dipole corrections)
   IDIPOL =      0    1-x, 2-y, 3-z, 4-all directions 
   EPSILON=  1.0000000 bulk dielectric constant

 Exchange correlation treatment:
   GGA     =    MK    GGA type
   LEXCH   =    43    internal setting for exchange type
   VOSKOWN=      0    Vosko Wilk Nusair interpolation
   LHFCALC =     F    Hartree Fock is set to
   LHFONE  =     F    Hartree Fock one center treatment
   AEXX    =    0.0000 exact exchange contribution

 vdW DFT:
   LUSE_VDW   =     T    switch on vdW DFT
   Zab_VDW    =-.8491    correlation parameter
   PARAM1     =0.1234
   PARAM2     =1.0000
   PARAM3     =0.0000
   -- rVV10 --
   BPARAM     = 6.3000
   CPARAM     = 0.0093

 Linear response parameters
   LEPSILON=     F    determine dielectric tensor
   LRPA    =     F    only Hartree local field effects (RPA)
   LNABLA  =     F    use nabla operator in PAW spheres
   LVEL    =     F    velocity operator in full k-point grid
   LINTERFAST=   F  fast interpolation
   KINTER  =     0    interpolate to denser k-point grid
   CSHIFT  =0.1000    complex shift for real part using Kramers Kronig
   OMEGAMAX=  -1.0    maximum frequency
   DEG_THRESHOLD= 0.2000000E-02 threshold for treating states as degnerate
   RTIME   =   -0.100 relaxation time in fs
  (WPLASMAI=    0.000 imaginary part of plasma frequency in eV, 0.658/RTIME)
   DFIELD  = 0.0000000 0.0000000 0.0000000 field for delta impulse in time
 
 Orbital magnetization related:
   ORBITALMAG=     F  switch on orbital magnetization
   LCHIMAG   =     F  perturbation theory with respect to B field
   DQ        =  0.001000  dq finite difference perturbation B field
   LLRAUG    =     F  two centre corrections for induced B field



--------------------------------------------------------------------------------------------------------


 Static calculation
 charge density and potential will be updated during run
 non-spin polarized calculation
 Conjugate gradient for all bands (Freysoldt, et al. PRB 79, 241103 (2009))
 preconditioned conjugated gradient                                        
 perform sub-space diagonalisation
    before iterative eigenvector-optimisation
 modified Broyden-mixing scheme, WC =      100.0
 initial mixing is a Kerker type mixing with AMIX =  0.4000 and BMIX =      1.0000
 Hartree-type preconditioning will be used
 using additional bands           28
 reciprocal scheme for non local part
 use partial core corrections
 no Harris-corrections to forces 
 use gradient corrections 
 use of overlap-Matrix (Vanderbilt PP)
 Gauss-broadening in eV      SIGMA  =   0.01


--------------------------------------------------------------------------------------------------------


  energy-cutoff  :     1000.00
  volume of cell :     3288.85
      direct lattice vectors                 reciprocal lattice vectors
    12.325000000  0.000000000  0.000000000     0.081135903  0.046843835  0.000000000
    -6.162500000 10.673763102  0.000000000     0.000000000  0.093687670  0.000000000
     0.000000000  0.000000000 25.000000000     0.000000000  0.000000000  0.040000000

  length of vectors
    12.325000000 12.325000000 25.000000000     0.093687670  0.093687670  0.040000000


 
 k-points in units of 2pi/SCALE and weight: auto                                    
   0.00000000  0.00000000  0.00000000       1.000
 
 k-points in reciprocal lattice and weights: auto                                    
   0.00000000  0.00000000  0.00000000       1.000
 
 position of ions in fractional coordinates (direct lattice) 
   0.97245084  0.00032082  0.00056671
   0.03911838  0.13365950  0.00044017
   0.17244363  0.00029545  0.00049963
   0.23909628  0.13364792  0.00025647
   0.97245206  0.20032201  0.00048522
   0.03912836  0.33364377  0.00044415
   0.17245176  0.20035455  0.00021917
   0.23912436  0.33366572  0.00007226
   0.37246557  0.00032440  0.00045391
   0.43913747  0.13361994  0.00025834
   0.97244982  0.40030936  0.00054761
   0.03912498  0.53363679  0.00057341
   0.37241618  0.40032948  0.00000000
   0.43909960  0.53363898  0.00023241
   0.57244368  0.00031213  0.00055958
   0.63911021  0.13363175  0.00054727
   0.97245270  0.60030565  0.00064029
   0.03912449  0.73364036  0.00065451
   0.57243347  0.60030624  0.00040289
   0.63911189  0.73364188  0.00052791
   0.17245463  0.40031823  0.00028904
   0.23912018  0.53363655  0.00037851
   0.37245975  0.20029599  0.00008900
   0.43910710  0.33367342  0.00005576
   0.17245216  0.60031151  0.00052434
   0.23912337  0.73363857  0.00057513
   0.57243108  0.20028917  0.00041330
   0.63911277  0.33361863  0.00046238
   0.37243981  0.60030802  0.00036284
   0.43911609  0.73363786  0.00049419
   0.57246936  0.40032050  0.00033992
   0.63911941  0.53365087  0.00045961
   0.77244572  0.00031543  0.00059616
   0.83911628  0.13364020  0.00057531
   0.77244051  0.20030743  0.00058103
   0.83912024  0.33363573  0.00058547
   0.77244632  0.40029837  0.00058298
   0.83911898  0.53363396  0.00062110
   0.77245614  0.60030817  0.00059571
   0.83911503  0.73364318  0.00063151
   0.97245531  0.80030558  0.00065223
   0.03911471  0.93364329  0.00059805
   0.17245797  0.80031221  0.00062337
   0.23913455  0.93364719  0.00054485
   0.37245140  0.80031667  0.00055140
   0.43912449  0.93364477  0.00054143
   0.57244110  0.80031005  0.00053453
   0.63911507  0.93363899  0.00058764
   0.77244510  0.80031319  0.00060206
   0.83911661  0.93364434  0.00060683
   0.37302101  0.25122688  0.20000000
   0.42087980  0.18931315  0.20257687
   0.32515698  0.31316719  0.19762181
 
 position of ions in cartesian coordinates  (Angst):
  11.98347958  0.00342433  0.01416777
  -0.34154264  1.42664989  0.01100432
   2.12354700  0.00315355  0.01249070
   2.12325634  1.42652621  0.00641170
  10.75098721  2.13818970  0.01213047
  -1.57382270  3.56123457  0.01110375
   0.89078307  2.13853702  0.00547917
   0.89099273  3.56146885  0.00180651
   4.58863896  0.00346260  0.01134782
   4.58893648  1.42622757  0.00645846
   9.51853763  4.27280730  0.01369027
  -2.80632132  5.69591267  0.01433526
   2.12299894  4.27302204  0.00000000
   2.12335237  5.69593607  0.00581036
   7.05344483  0.00333155  0.01398950
   7.05352764  1.42635365  0.01368187
   8.28609598  6.40752033  0.01600723
  -4.03884931  7.83070339  0.01636283
   3.35585531  6.40752662  0.01007237
   3.35598594  7.83071962  0.01319763
  -0.34145776  4.27290193  0.00722612
  -0.34137895  5.69591010  0.00946273
   3.35624236  2.13791198  0.00222492
   3.35573251  3.56155103  0.00139405
  -1.57394684  6.40758280  0.01310850
  -1.57385216  7.83068434  0.01437823
   5.82093107  2.13783916  0.01033241
   5.82114012  3.56096622  0.01155939
   0.89092245  6.40754561  0.00907111
   0.89106251  7.83067670  0.01235474
   4.58870974  4.27292622  0.00849795
   4.58852320  5.69606300  0.01149026
   9.51844972  0.00336679  0.01490402
   9.51855036  1.42644387  0.01438264
   8.28593477  2.13803408  0.01452582
   8.28612680  3.56114872  0.01463668
   7.05356221  4.27268994  0.01457444
   7.05362213  5.69588251  0.01552751
   5.82112285  6.40754723  0.01489279
   5.82101669  7.83073350  0.01578780
   7.05362858  8.54227219  0.01630582
  -5.27148792  9.96548729  0.01495127
  -2.80637951  8.54234295  0.01558431
  -2.80626749  9.96552896  0.01362126
  -0.34148805  8.54239058  0.01378498
  -0.34137657  9.96550309  0.01353576
   2.12342586  8.54231992  0.01336337
   2.12354296  9.96544135  0.01469111
   4.58845581  8.54235337  0.01505154
   4.58852904  9.96549848  0.01517076
   3.04929830  2.68153618  5.00000000
   4.02070129  2.02068374  5.06442186
   2.07766701  3.34267235  4.94054513
 


--------------------------------------------------------------------------------------------------------


 k-point   1 :   0.0000 0.0000 0.0000  plane waves:  236157

 maximum and minimum number of plane-waves per node :      8440     8428

 maximum number of plane-waves:    236157
 maximum index in each direction: 
   IXMAX=   31   IYMAX=   31   IZMAX=   64
   IXMIN=  -31   IYMIN=  -31   IZMIN=  -64


 parallel 3D FFT for wavefunctions:
    minimum data exchange during FFTs selected (reduces bandwidth)
 parallel 3D FFT for charge:
    minimum data exchange during FFTs selected (reduces bandwidth)


 total amount of memory used by VASP MPI-rank0   100580. kBytes
=======================================================================

   base      :      30000. kBytes
   nonl-proj :       8229. kBytes
   fftplans  :      18352. kBytes
   grid      :      30208. kBytes
   one-center:          6. kBytes
   wavefun   :      13785. kBytes
 
     INWAV:  cpu time    0.0000: real time    0.0000
 Broyden mixing: mesh for mixing (old mesh)
   NGX = 63   NGY = 63   NGZ =129
  (NGX  =256   NGY  =256   NGZ  =540)
  gives a total of 512001 points

 initial charge density was supplied:
 charge density of overlapping atoms calculated
 number of electron     216.0000000 magnetization 
 keeping initial charge density in first step


--------------------------------------------------------------------------------------------------------


 Maximum index for augmentation-charges          471 (set IRDMAX)


--------------------------------------------------------------------------------------------------------


 First call to EWALD:  gamma=   0.119
 Maximum number of real-space cells 4x 4x 2
 Maximum number of reciprocal cells 2x 2x 4

    FEWALD:  cpu time    0.0024: real time    0.0025


--------------------------------------- Iteration      1(   1)  ---------------------------------------


vdW kernel read from vdw_kernel.bindat
  0.0000  0.2424  0.5071  0.7962  1.1119  1.4567  1.8333  2.2446  2.6937  3.1842
  3.7199  4.3049  4.9438  5.6415  6.4036  7.2358  8.1446  9.1372 10.2212 11.4050
 12.6979 14.1099 15.6519 17.3360 19.1751 21.1837 23.3773 25.7729 28.3892 31.2465
 34.3669 37.7748 41.4965 45.5611 50.0000
 
    POTLOK:  cpu time    4.5151: real time    4.5517
    SETDIJ:  cpu time    0.0572: real time    0.0574
    TRIAL :  cpu time    2.0967: real time    2.1174
    CORREC:  cpu time    0.0005: real time    0.0006
    --------------------------------------------
      LOOP:  cpu time    6.6752: real time    6.7381

 eigenvalue-minimisations  :   288
 total energy-change (2. order) : 0.2748122E+04  (-0.1020030E+05)
 number of electron     216.0000000 magnetization 
 augmentation part      216.0000000 magnetization 

 Free energy of the ion-electron system (eV)
  ---------------------------------------------------
  alpha Z        PSCENC =        47.94900195
  Ewald energy   TEWEN  =     44792.55775787
  -Hartree energ DENC   =    -50861.72206340
  -exchange      EXHF   =         0.00000000
  -V(xc)+E(xc)   XCENC  =       414.09998700
  PAW double counting   =      6552.85433684    -6257.21772958
  entropy T*S    EENTRO =        -0.00000000
  eigenvalues    EBANDS =      -355.43524004
  atomic energy  EATOM  =      8415.03548706
  ---------------------------------------------------
  free energy    TOTEN  =      2748.12153770 eV

  energy without entropy =     2748.12153770  energy(sigma->0) =     2748.12153770


--------------------------------------------------------------------------------------------------------




--------------------------------------- Iteration      1(   2)  ---------------------------------------


    TRIAL :  cpu time    2.8330: real time    2.8578
    CORREC:  cpu time    0.0001: real time    0.0001
    --------------------------------------------
      LOOP:  cpu time    2.8991: real time    2.9276

 eigenvalue-minimisations  :   440
 total energy-change (2. order) :-0.2309683E+04  (-0.2162634E+04)
 number of electron     216.0000000 magnetization 
 augmentation part      216.0000000 magnetization 

 Free energy of the ion-electron system (eV)
  ---------------------------------------------------
  alpha Z        PSCENC =        47.94900195
  Ewald energy   TEWEN  =     44792.55775787
  -Hartree energ DENC   =    -50861.72206340
  -exchange      EXHF   =         0.00000000
  -V(xc)+E(xc)   XCENC  =       414.09998700
  PAW double counting   =      6552.85433684    -6257.21772958
  entropy T*S    EENTRO =        -0.00000000
  eigenvalues    EBANDS =     -2665.11846114
  atomic energy  EATOM  =      8415.03548706
  ---------------------------------------------------
  free energy    TOTEN  =       438.43831660 eV

  energy without entropy =      438.43831660  energy(sigma->0) =      438.43831660


--------------------------------------------------------------------------------------------------------




--------------------------------------- Iteration      1(   3)  ---------------------------------------


    TRIAL :  cpu time    2.3781: real time    2.3981
    CORREC:  cpu time    0.0001: real time    0.0001
    --------------------------------------------
      LOOP:  cpu time    2.4035: real time    2.4247

 eigenvalue-minimisations  :   352
 total energy-change (2. order) :-0.8120154E+03  (-0.8038768E+03)
 number of electron     216.0000000 magnetization 
 augmentation part      216.0000000 magnetization 

 Free energy of the ion-electron system (eV)
  ---------------------------------------------------
  alpha Z        PSCENC =        47.94900195
  Ewald energy   TEWEN  =     44792.55775787
  -Hartree energ DENC   =    -50861.72206340
  -exchange      EXHF   =         0.00000000
  -V(xc)+E(xc)   XCENC  =       414.09998700
  PAW double counting   =      6552.85433684    -6257.21772958
  entropy T*S    EENTRO =        -0.00000000
  eigenvalues    EBANDS =     -3477.13389423
  atomic energy  EATOM  =      8415.03548706
  ---------------------------------------------------
  free energy    TOTEN  =      -373.57711650 eV

  energy without entropy =     -373.57711650  energy(sigma->0) =     -373.57711650


--------------------------------------------------------------------------------------------------------




--------------------------------------- Iteration      1(   4)  ---------------------------------------


    TRIAL :  cpu time    2.2520: real time    2.2713
    CORREC:  cpu time    0.0001: real time    0.0001
    --------------------------------------------
      LOOP:  cpu time    2.2808: real time    2.3112

 eigenvalue-minimisations  :   328
 total energy-change (2. order) :-0.7417348E+02  (-0.7323781E+02)
 number of electron     216.0000000 magnetization 
 augmentation part      216.0000000 magnetization 

 Free energy of the ion-electron system (eV)
  ---------------------------------------------------
  alpha Z        PSCENC =        47.94900195
  Ewald energy   TEWEN  =     44792.55775787
  -Hartree energ DENC   =    -50861.72206340
  -exchange      EXHF   =         0.00000000
  -V(xc)+E(xc)   XCENC  =       414.09998700
  PAW double counting   =      6552.85433684    -6257.21772958
  entropy T*S    EENTRO =        -0.00000000
  eigenvalues    EBANDS =     -3551.30737451
  atomic energy  EATOM  =      8415.03548706
  ---------------------------------------------------
  free energy    TOTEN  =      -447.75059677 eV

  energy without entropy =     -447.75059677  energy(sigma->0) =     -447.75059677


--------------------------------------------------------------------------------------------------------




--------------------------------------- Iteration      1(   5)  ---------------------------------------


    TRIAL :  cpu time    2.4217: real time    2.4424
    CORREC:  cpu time    0.0001: real time    0.0001
    CHARGE:  cpu time    0.1794: real time    0.1817
    --------------------------------------------
      LOOP:  cpu time    2.6558: real time    2.6808

 eigenvalue-minimisations  :   360
 total energy-change (2. order) :-0.2237118E+01  (-0.2227954E+01)
 number of electron     216.0000000 magnetization 
 augmentation part       -0.2541889 magnetization 

 Free energy of the ion-electron system (eV)
  ---------------------------------------------------
  alpha Z        PSCENC =        47.94900195
  Ewald energy   TEWEN  =     44792.55775787
  -Hartree energ DENC   =    -50861.72206340
  -exchange      EXHF   =         0.00000000
  -V(xc)+E(xc)   XCENC  =       414.09998700
  PAW double counting   =      6552.85433684    -6257.21772958
  entropy T*S    EENTRO =        -0.00000000
  eigenvalues    EBANDS =     -3553.54449300
  atomic energy  EATOM  =      8415.03548706
  ---------------------------------------------------
  free energy    TOTEN  =      -449.98771526 eV

  energy without entropy =     -449.98771526  energy(sigma->0) =     -449.98771526


--------------------------------------------------------------------------------------------------------




--------------------------------------- Iteration      1(   6)  ---------------------------------------


    POTLOK:  cpu time    4.2179: real time    4.2476
    SETDIJ:  cpu time    0.0563: real time    0.0565
    TRIAL :  cpu time    1.1646: real time    1.1749
    CORREC:  cpu time    4.7280: real time    4.7645
    CHARGE:  cpu time    0.1804: real time    0.1821
    --------------------------------------------
      LOOP:  cpu time   10.3863: real time   10.4673

 eigenvalue-minimisations  :     0
 total energy-change (2. order) : 0.5103763E+02  (-0.1579309E+02)
 number of electron     216.0000000 magnetization 
 augmentation part       -0.3463945 magnetization 

 Free energy of the ion-electron system (eV)
  ---------------------------------------------------
  alpha Z        PSCENC =        47.94900195
  Ewald energy   TEWEN  =     44792.55775787
  -Hartree energ DENC   =    -52294.29624837
  -exchange      EXHF   =         0.00000000
  -V(xc)+E(xc)   XCENC  =       461.64708326
  PAW double counting   =     86086.64174129   -85796.00334498
  entropy T*S    EENTRO =        -0.00000000
  eigenvalues    EBANDS =     -2112.48156175
  atomic energy  EATOM  =      8415.03548706
  ---------------------------------------------------
  free energy    TOTEN  =      -398.95008367 eV

  energy without entropy =     -398.95008367  energy(sigma->0) =     -398.95008367


--------------------------------------------------------------------------------------------------------




--------------------------------------- Iteration      1(   7)  ---------------------------------------


    POTLOK:  cpu time    4.2379: real time    4.2681
    SETDIJ:  cpu time    0.0560: real time    0.0562
    TRIAL :  cpu time    1.1569: real time    1.1673
    CORREC:  cpu time    4.6978: real time    4.7341
    CHARGE:  cpu time    0.1809: real time    0.1826
    --------------------------------------------
      LOOP:  cpu time   10.4022: real time   10.4830

 eigenvalue-minimisations  :     0
 total energy-change (2. order) :-0.1584056E+02  (-0.1840031E+01)
 number of electron     216.0000000 magnetization 
 augmentation part       -0.3910471 magnetization 

 Free energy of the ion-electron system (eV)
  ---------------------------------------------------
  alpha Z        PSCENC =        47.94900195
  Ewald energy   TEWEN  =     44792.55775787
  -Hartree energ DENC   =    -51779.92187718
  -exchange      EXHF   =         0.00000000
  -V(xc)+E(xc)   XCENC  =       444.61573798
  PAW double counting   =    101184.97011712  -100891.92305918
  entropy T*S    EENTRO =        -0.00000000
  eigenvalues    EBANDS =     -2628.07380966
  atomic energy  EATOM  =      8415.03548706
  ---------------------------------------------------
  free energy    TOTEN  =      -414.79064403 eV

  energy without entropy =     -414.79064403  energy(sigma->0) =     -414.79064403


--------------------------------------------------------------------------------------------------------




--------------------------------------- Iteration      1(   8)  ---------------------------------------


    POTLOK:  cpu time    4.2166: real time    4.2480
    SETDIJ:  cpu time    0.0560: real time    0.0562
    TRIAL :  cpu time    1.1600: real time    1.1710
    CORREC:  cpu time    4.7501: real time    4.7861
    CHARGE:  cpu time    0.1813: real time    0.1830
    --------------------------------------------
      LOOP:  cpu time   10.3687: real time   10.5082

 eigenvalue-minimisations  :     0
 total energy-change (2. order) :-0.1838891E+01  (-0.4983261E+00)
 number of electron     216.0000000 magnetization 
 augmentation part       -0.4080933 magnetization 

 Free energy of the ion-electron system (eV)
  ---------------------------------------------------
  alpha Z        PSCENC =        47.94900195
  Ewald energy   TEWEN  =     44792.55775787
  -Hartree energ DENC   =    -51752.64418410
  -exchange      EXHF   =         0.00000000
  -V(xc)+E(xc)   XCENC  =       444.10747573
  PAW double counting   =    105121.19345979  -104827.86891449
  entropy T*S    EENTRO =        -0.00000000
  eigenvalues    EBANDS =     -2656.95961903
  atomic energy  EATOM  =      8415.03548706
  ---------------------------------------------------
  free energy    TOTEN  =      -416.62953522 eV

  energy without entropy =     -416.62953522  energy(sigma->0) =     -416.62953522


--------------------------------------------------------------------------------------------------------




--------------------------------------- Iteration      1(   9)  ---------------------------------------


    POTLOK:  cpu time    4.2419: real time    4.2717
    SETDIJ:  cpu time    0.0560: real time    0.0562
    TRIAL :  cpu time    1.1584: real time    1.1787
    CORREC:  cpu time    4.7125: real time    4.7476
    CHARGE:  cpu time    0.1814: real time    0.1831
    --------------------------------------------
      LOOP:  cpu time   10.4002: real time   10.4906

 eigenvalue-minimisations  :     0
 total energy-change (2. order) :-0.4981940E+00  (-0.1833574E+00)
 number of electron     216.0000000 magnetization 
 augmentation part       -0.4160299 magnetization 

 Free energy of the ion-electron system (eV)
  ---------------------------------------------------
  alpha Z        PSCENC =        47.94900195
  Ewald energy   TEWEN  =     44792.55775787
  -Hartree energ DENC   =    -51769.30772137
  -exchange      EXHF   =         0.00000000
  -V(xc)+E(xc)   XCENC  =       444.29937784
  PAW double counting   =    107690.76784651  -107397.32453748
  entropy T*S    EENTRO =        -0.00000000
  eigenvalues    EBANDS =     -2641.10494156
  atomic energy  EATOM  =      8415.03548706
  ---------------------------------------------------
  free energy    TOTEN  =      -417.12772918 eV

  energy without entropy =     -417.12772918  energy(sigma->0) =     -417.12772918


--------------------------------------------------------------------------------------------------------




--------------------------------------- Iteration      1(  10)  ---------------------------------------


    POTLOK:  cpu time    4.2963: real time    4.3267
    SETDIJ:  cpu time    0.0561: real time    0.0563
    TRIAL :  cpu time    1.1564: real time    1.1690
    CORREC:  cpu time    4.7287: real time    4.7686
    CHARGE:  cpu time    0.1814: real time    0.1834
    --------------------------------------------
      LOOP:  cpu time   10.4858: real time   10.5782

 eigenvalue-minimisations  :     0
 total energy-change (2. order) :-0.1828506E+00  (-0.8682757E-01)
 number of electron     216.0000000 magnetization 
 augmentation part       -0.4160066 magnetization 

 Free energy of the ion-electron system (eV)
  ---------------------------------------------------
  alpha Z        PSCENC =        47.94900195
  Ewald energy   TEWEN  =     44792.55775787
  -Hartree energ DENC   =    -51767.54715646
  -exchange      EXHF   =         0.00000000
  -V(xc)+E(xc)   XCENC  =       444.15102348
  PAW double counting   =    108127.47771633  -107833.95497154
  entropy T*S    EENTRO =        -0.00000000
  eigenvalues    EBANDS =     -2642.97943844
  atomic energy  EATOM  =      8415.03548706
  ---------------------------------------------------
  free energy    TOTEN  =      -417.31057975 eV

  energy without entropy =     -417.31057975  energy(sigma->0) =     -417.31057975


--------------------------------------------------------------------------------------------------------




--------------------------------------- Iteration      1(  11)  ---------------------------------------


    POTLOK:  cpu time    4.2330: real time    4.2632
    SETDIJ:  cpu time    0.0562: real time    0.0564
    TRIAL :  cpu time    1.1577: real time    1.1687
    CORREC:  cpu time    4.7262: real time    4.7623
    CHARGE:  cpu time    0.1807: real time    0.1825
    --------------------------------------------
      LOOP:  cpu time   10.4224: real time   10.5045

 eigenvalue-minimisations  :     0
 total energy-change (2. order) :-0.8642373E-01  (-0.3634949E-01)
 number of electron     216.0000000 magnetization 
 augmentation part       -0.4151379 magnetization 

 Free energy of the ion-electron system (eV)
  ---------------------------------------------------
  alpha Z        PSCENC =        47.94900195
  Ewald energy   TEWEN  =     44792.55775787
  -Hartree energ DENC   =    -51760.73778633
  -exchange      EXHF   =         0.00000000
  -V(xc)+E(xc)   XCENC  =       444.04998985
  PAW double counting   =    107623.65395777  -107330.13540953
  entropy T*S    EENTRO =        -0.00000000
  eigenvalues    EBANDS =     -2649.77000211
  atomic energy  EATOM  =      8415.03548706
  ---------------------------------------------------
  free energy    TOTEN  =      -417.39700348 eV

  energy without entropy =     -417.39700348  energy(sigma->0) =     -417.39700348


--------------------------------------------------------------------------------------------------------




--------------------------------------- Iteration      1(  12)  ---------------------------------------


    POTLOK:  cpu time    4.2233: real time    4.2606
    SETDIJ:  cpu time    0.0561: real time    0.0563
    TRIAL :  cpu time    1.1566: real time    1.1675
    CORREC:  cpu time    4.7070: real time    4.7437
    CHARGE:  cpu time    0.1818: real time    0.1835
    --------------------------------------------
      LOOP:  cpu time   10.3873: real time   10.4760

 eigenvalue-minimisations  :     0
 total energy-change (2. order) :-0.3622888E-01  (-0.1143932E-01)
 number of electron     216.0000000 magnetization 
 augmentation part       -0.4148201 magnetization 

 Free energy of the ion-electron system (eV)
  ---------------------------------------------------
  alpha Z        PSCENC =        47.94900195
  Ewald energy   TEWEN  =     44792.55775787
  -Hartree energ DENC   =    -51757.61803800
  -exchange      EXHF   =         0.00000000
  -V(xc)+E(xc)   XCENC  =       443.97620051
  PAW double counting   =    107249.93106875  -106956.43144065
  entropy T*S    EENTRO =        -0.00000000
  eigenvalues    EBANDS =     -2652.83326986
  atomic energy  EATOM  =      8415.03548706
  ---------------------------------------------------
  free energy    TOTEN  =      -417.43323236 eV

  energy without entropy =     -417.43323236  energy(sigma->0) =     -417.43323236


--------------------------------------------------------------------------------------------------------




--------------------------------------- Iteration      1(  13)  ---------------------------------------


    POTLOK:  cpu time    4.2611: real time    4.2916
    SETDIJ:  cpu time    0.0559: real time    0.0562
    TRIAL :  cpu time    1.1619: real time    1.1751
    CORREC:  cpu time    4.6846: real time    4.7253
    CHARGE:  cpu time    0.1821: real time    0.1838
    --------------------------------------------
      LOOP:  cpu time   10.3913: real time   10.4843

 eigenvalue-minimisations  :     0
 total energy-change (2. order) :-0.1143221E-01  (-0.3344721E-02)
 number of electron     216.0000000 magnetization 
 augmentation part       -0.4141309 magnetization 

 Free energy of the ion-electron system (eV)
  ---------------------------------------------------
  alpha Z        PSCENC =        47.94900195
  Ewald energy   TEWEN  =     44792.55775787
  -Hartree energ DENC   =    -51757.63758993
  -exchange      EXHF   =         0.00000000
  -V(xc)+E(xc)   XCENC  =       443.97123864
  PAW double counting   =    107114.18108728  -106820.69164988
  entropy T*S    EENTRO =        -0.00000000
  eigenvalues    EBANDS =     -2652.80999756
  atomic energy  EATOM  =      8415.03548706
  ---------------------------------------------------
  free energy    TOTEN  =      -417.44466457 eV

  energy without entropy =     -417.44466457  energy(sigma->0) =     -417.44466457


--------------------------------------------------------------------------------------------------------




--------------------------------------- Iteration      1(  14)  ---------------------------------------


    POTLOK:  cpu time    4.2321: real time    4.2623
    SETDIJ:  cpu time    0.0559: real time    0.0561
    TRIAL :  cpu time    1.1567: real time    1.1672
    CORREC:  cpu time    4.7285: real time    4.7676
    CHARGE:  cpu time    0.1815: real time    0.1835
    --------------------------------------------
      LOOP:  cpu time   10.4131: real time   10.4997

 eigenvalue-minimisations  :     0
 total energy-change (2. order) :-0.3346305E-02  (-0.1213996E-02)
 number of electron     216.0000000 magnetization 
 augmentation part       -0.4137690 magnetization 

 Free energy of the ion-electron system (eV)
  ---------------------------------------------------
  alpha Z        PSCENC =        47.94900195
  Ewald energy   TEWEN  =     44792.55775787
  -Hartree energ DENC   =    -51757.62823096
  -exchange      EXHF   =         0.00000000
  -V(xc)+E(xc)   XCENC  =       443.97062380
  PAW double counting   =    107105.70390063  -106812.21850108
  entropy T*S    EENTRO =        -0.00000000
  eigenvalues    EBANDS =     -2652.81805015
  atomic energy  EATOM  =      8415.03548706
  ---------------------------------------------------
  free energy    TOTEN  =      -417.44801087 eV

  energy without entropy =     -417.44801087  energy(sigma->0) =     -417.44801087


--------------------------------------------------------------------------------------------------------




--------------------------------------- Iteration      1(  15)  ---------------------------------------


    POTLOK:  cpu time    4.2129: real time    4.2478
    SETDIJ:  cpu time    0.0561: real time    0.0563
    TRIAL :  cpu time    1.1540: real time    1.1668
    CORREC:  cpu time    4.7001: real time    4.7392
    CHARGE:  cpu time    0.1813: real time    0.1830
    --------------------------------------------
      LOOP:  cpu time   10.3428: real time   10.4463

 eigenvalue-minimisations  :     0
 total energy-change (2. order) :-0.1216470E-02  (-0.5957531E-03)
 number of electron     216.0000000 magnetization 
 augmentation part       -0.4132888 magnetization 

 Free energy of the ion-electron system (eV)
  ---------------------------------------------------
  alpha Z        PSCENC =        47.94900195
  Ewald energy   TEWEN  =     44792.55775787
  -Hartree energ DENC   =    -51757.27558200
  -exchange      EXHF   =         0.00000000
  -V(xc)+E(xc)   XCENC  =       443.95187287
  PAW double counting   =    107094.88831791  -106801.40135783
  entropy T*S    EENTRO =        -0.00000000
  eigenvalues    EBANDS =     -2653.15472518
  atomic energy  EATOM  =      8415.03548706
  ---------------------------------------------------
  free energy    TOTEN  =      -417.44922734 eV

  energy without entropy =     -417.44922734  energy(sigma->0) =     -417.44922734


--------------------------------------------------------------------------------------------------------




--------------------------------------- Iteration      1(  16)  ---------------------------------------


    POTLOK:  cpu time    4.2284: real time    4.2594
    SETDIJ:  cpu time    0.0560: real time    0.0562
    TRIAL :  cpu time    1.1574: real time    1.1683
    CORREC:  cpu time    4.6893: real time    4.7274
    CHARGE:  cpu time    0.1811: real time    0.1832
    --------------------------------------------
      LOOP:  cpu time   10.3937: real time   10.4804

 eigenvalue-minimisations  :     0
 total energy-change (2. order) :-0.5973962E-03  (-0.3045761E-03)
 number of electron     216.0000000 magnetization 
 augmentation part       -0.4131616 magnetization 

 Free energy of the ion-electron system (eV)
  ---------------------------------------------------
  alpha Z        PSCENC =        47.94900195
  Ewald energy   TEWEN  =     44792.55775787
  -Hartree energ DENC   =    -51757.74724406
  -exchange      EXHF   =         0.00000000
  -V(xc)+E(xc)   XCENC  =       443.96743726
  PAW double counting   =    107035.11173990  -106741.62677883
  entropy T*S    EENTRO =        -0.00000000
  eigenvalues    EBANDS =     -2652.69722589
  atomic energy  EATOM  =      8415.03548706
  ---------------------------------------------------
  free energy    TOTEN  =      -417.44982474 eV

  energy without entropy =     -417.44982474  energy(sigma->0) =     -417.44982474


--------------------------------------------------------------------------------------------------------




--------------------------------------- Iteration      1(  17)  ---------------------------------------


    POTLOK:  cpu time    4.2433: real time    4.2737
    SETDIJ:  cpu time    0.0561: real time    0.0563
    TRIAL :  cpu time    1.1574: real time    1.1682
    CORREC:  cpu time    4.6928: real time    4.7297
    CHARGE:  cpu time    0.1820: real time    0.1837
    --------------------------------------------
      LOOP:  cpu time   10.3854: real time   10.4700

 eigenvalue-minimisations  :     0
 total energy-change (2. order) :-0.3058055E-03  (-0.1210924E-03)
 number of electron     216.0000000 magnetization 
 augmentation part       -0.4132453 magnetization 

 Free energy of the ion-electron system (eV)
  ---------------------------------------------------
  alpha Z        PSCENC =        47.94900195
  Ewald energy   TEWEN  =     44792.55775787
  -Hartree energ DENC   =    -51757.92035967
  -exchange      EXHF   =         0.00000000
  -V(xc)+E(xc)   XCENC  =       443.96951418
  PAW double counting   =    106979.09445472  -106685.60874666
  entropy T*S    EENTRO =        -0.00000000
  eigenvalues    EBANDS =     -2652.52724000
  atomic energy  EATOM  =      8415.03548706
  ---------------------------------------------------
  free energy    TOTEN  =      -417.45013054 eV

  energy without entropy =     -417.45013054  energy(sigma->0) =     -417.45013054


--------------------------------------------------------------------------------------------------------




--------------------------------------- Iteration      1(  18)  ---------------------------------------


    POTLOK:  cpu time    4.2070: real time    4.2371
    SETDIJ:  cpu time    0.0560: real time    0.0563
    TRIAL :  cpu time    1.1563: real time    1.1673
    CORREC:  cpu time    4.6875: real time    4.7233
    CHARGE:  cpu time    0.1814: real time    0.1833
    --------------------------------------------
      LOOP:  cpu time   10.3488: real time   10.4307

 eigenvalue-minimisations  :     0
 total energy-change (2. order) :-0.1210846E-03  (-0.4515990E-04)
 number of electron     216.0000000 magnetization 
 augmentation part       -0.4134315 magnetization 

 Free energy of the ion-electron system (eV)
  ---------------------------------------------------
  alpha Z        PSCENC =        47.94900195
  Ewald energy   TEWEN  =     44792.55775787
  -Hartree energ DENC   =    -51757.97085996
  -exchange      EXHF   =         0.00000000
  -V(xc)+E(xc)   XCENC  =       443.97197720
  PAW double counting   =    106969.86880379  -106676.38261576
  entropy T*S    EENTRO =        -0.00000000
  eigenvalues    EBANDS =     -2652.47980378
  atomic energy  EATOM  =      8415.03548706
  ---------------------------------------------------
  free energy    TOTEN  =      -417.45025163 eV

  energy without entropy =     -417.45025163  energy(sigma->0) =     -417.45025163


--------------------------------------------------------------------------------------------------------




--------------------------------------- Iteration      1(  19)  ---------------------------------------


    POTLOK:  cpu time    4.2172: real time    4.2486
    SETDIJ:  cpu time    0.0560: real time    0.0562
    TRIAL :  cpu time    1.1632: real time    1.1757
    CORREC:  cpu time    4.6865: real time    4.7252
    CHARGE:  cpu time    0.1822: real time    0.1840
    --------------------------------------------
      LOOP:  cpu time   10.3819: real time   10.4711

 eigenvalue-minimisations  :     0
 total energy-change (2. order) :-0.4481588E-04  (-0.1765219E-04)
 number of electron     216.0000000 magnetization 
 augmentation part       -0.4135219 magnetization 

 Free energy of the ion-electron system (eV)
  ---------------------------------------------------
  alpha Z        PSCENC =        47.94900195
  Ewald energy   TEWEN  =     44792.55775787
  -Hartree energ DENC   =    -51757.95200974
  -exchange      EXHF   =         0.00000000
  -V(xc)+E(xc)   XCENC  =       443.97094318
  PAW double counting   =    106983.75556901  -106690.26860726
  entropy T*S    EENTRO =        -0.00000000
  eigenvalues    EBANDS =     -2652.49843852
  atomic energy  EATOM  =      8415.03548706
  ---------------------------------------------------
  free energy    TOTEN  =      -417.45029644 eV

  energy without entropy =     -417.45029644  energy(sigma->0) =     -417.45029644


--------------------------------------------------------------------------------------------------------




--------------------------------------- Iteration      1(  20)  ---------------------------------------


    POTLOK:  cpu time    4.2551: real time    4.2867
    SETDIJ:  cpu time    0.0561: real time    0.0563
    TRIAL :  cpu time    1.1585: real time    1.1694
    CORREC:  cpu time    4.7176: real time    4.7547
    CHARGE:  cpu time    0.1818: real time    0.1835
    --------------------------------------------
      LOOP:  cpu time   10.4089: real time   10.5012

 eigenvalue-minimisations  :     0
 total energy-change (2. order) :-0.1738212E-04  (-0.9715281E-05)
 number of electron     216.0000000 magnetization 
 augmentation part       -0.4135637 magnetization 

 Free energy of the ion-electron system (eV)
  ---------------------------------------------------
  alpha Z        PSCENC =        47.94900195
  Ewald energy   TEWEN  =     44792.55775787
  -Hartree energ DENC   =    -51757.97850909
  -exchange      EXHF   =         0.00000000
  -V(xc)+E(xc)   XCENC  =       443.97187378
  PAW double counting   =    106995.78893881  -106702.30193929
  entropy T*S    EENTRO =        -0.00000000
  eigenvalues    EBANDS =     -2652.47292491
  atomic energy  EATOM  =      8415.03548706
  ---------------------------------------------------
  free energy    TOTEN  =      -417.45031382 eV

  energy without entropy =     -417.45031382  energy(sigma->0) =     -417.45031382


--------------------------------------------------------------------------------------------------------




--------------------------------------- Iteration      1(  21)  ---------------------------------------


    POTLOK:  cpu time    4.2132: real time    4.2420
    SETDIJ:  cpu time    0.0561: real time    0.0563
    TRIAL :  cpu time    1.1576: real time    1.1683
    CORREC:  cpu time    4.7010: real time    4.7351
    CHARGE:  cpu time    0.1813: real time    0.1831
    --------------------------------------------
      LOOP:  cpu time   10.3969: real time   10.4761

 eigenvalue-minimisations  :     0
 total energy-change (2. order) :-0.9601252E-05  (-0.5954940E-05)
 number of electron     216.0000000 magnetization 
 augmentation part       -0.4135594 magnetization 

 Free energy of the ion-electron system (eV)
  ---------------------------------------------------
  alpha Z        PSCENC =        47.94900195
  Ewald energy   TEWEN  =     44792.55775787
  -Hartree energ DENC   =    -51757.96733383
  -exchange      EXHF   =         0.00000000
  -V(xc)+E(xc)   XCENC  =       443.97139635
  PAW double counting   =    107001.91575269  -106708.42877562
  entropy T*S    EENTRO =        -0.00000000
  eigenvalues    EBANDS =     -2652.48360991
  atomic energy  EATOM  =      8415.03548706
  ---------------------------------------------------
  free energy    TOTEN  =      -417.45032343 eV

  energy without entropy =     -417.45032343  energy(sigma->0) =     -417.45032343


--------------------------------------------------------------------------------------------------------




--------------------------------------- Iteration      1(  22)  ---------------------------------------


    POTLOK:  cpu time    4.2149: real time    4.2446
    SETDIJ:  cpu time    0.0572: real time    0.0574
    TRIAL :  cpu time    1.1533: real time    1.1684
    CORREC:  cpu time    4.6907: real time    4.7254
    CHARGE:  cpu time    0.1817: real time    0.1834
    --------------------------------------------
      LOOP:  cpu time   10.3312: real time   10.4164

 eigenvalue-minimisations  :     0
 total energy-change (2. order) :-0.5919457E-05  (-0.2601804E-05)
 number of electron     216.0000000 magnetization 
 augmentation part       -0.4135274 magnetization 

 Free energy of the ion-electron system (eV)
  ---------------------------------------------------
  alpha Z        PSCENC =        47.94900195
  Ewald energy   TEWEN  =     44792.55775787
  -Hartree energ DENC   =    -51757.93479539
  -exchange      EXHF   =         0.00000000
  -V(xc)+E(xc)   XCENC  =       443.97026337
  PAW double counting   =    107001.77704775  -106708.29014200
  entropy T*S    EENTRO =        -0.00000000
  eigenvalues    EBANDS =     -2652.51494996
  atomic energy  EATOM  =      8415.03548706
  ---------------------------------------------------
  free energy    TOTEN  =      -417.45032935 eV

  energy without entropy =     -417.45032935  energy(sigma->0) =     -417.45032935


--------------------------------------------------------------------------------------------------------




--------------------------------------- Iteration      1(  23)  ---------------------------------------


    POTLOK:  cpu time    4.2359: real time    4.2668
    SETDIJ:  cpu time    0.0560: real time    0.0562
    TRIAL :  cpu time    1.1523: real time    1.1683
    CORREC:  cpu time    4.7324: real time    4.7690
    CHARGE:  cpu time    0.1808: real time    0.1825
    --------------------------------------------
      LOOP:  cpu time   10.4065: real time   10.4935

 eigenvalue-minimisations  :     0
 total energy-change (2. order) :-0.2626475E-05  (-0.9860307E-06)
 number of electron     216.0000000 magnetization 
 augmentation part       -0.4135218 magnetization 

 Free energy of the ion-electron system (eV)
  ---------------------------------------------------
  alpha Z        PSCENC =        47.94900195
  Ewald energy   TEWEN  =     44792.55775787
  -Hartree energ DENC   =    -51757.93730303
  -exchange      EXHF   =         0.00000000
  -V(xc)+E(xc)   XCENC  =       443.97064138
  PAW double counting   =    106999.41690749  -106705.93018644
  entropy T*S    EENTRO =        -0.00000000
  eigenvalues    EBANDS =     -2652.51263826
  atomic energy  EATOM  =      8415.03548706
  ---------------------------------------------------
  free energy    TOTEN  =      -417.45033197 eV

  energy without entropy =     -417.45033197  energy(sigma->0) =     -417.45033197


--------------------------------------------------------------------------------------------------------




--------------------------------------- Iteration      1(  24)  ---------------------------------------


    POTLOK:  cpu time    4.2470: real time    4.2779
    SETDIJ:  cpu time    0.0561: real time    0.0563
    TRIAL :  cpu time    1.1544: real time    1.1669
    CORREC:  cpu time    4.6824: real time    4.7194
    CHARGE:  cpu time    0.1811: real time    0.1829
    --------------------------------------------
      LOOP:  cpu time   10.3645: real time   10.4508

 eigenvalue-minimisations  :     0
 total energy-change (2. order) :-0.9981013E-06  (-0.4463042E-06)
 number of electron     216.0000000 magnetization 
 augmentation part       -0.4135191 magnetization 

 Free energy of the ion-electron system (eV)
  ---------------------------------------------------
  alpha Z        PSCENC =        47.94900195
  Ewald energy   TEWEN  =     44792.55775787
  -Hartree energ DENC   =    -51757.92860842
  -exchange      EXHF   =         0.00000000
  -V(xc)+E(xc)   XCENC  =       443.97034153
  PAW double counting   =    106998.40123390  -106704.91446043
  entropy T*S    EENTRO =        -0.00000000
  eigenvalues    EBANDS =     -2652.52108643
  atomic energy  EATOM  =      8415.03548706
  ---------------------------------------------------
  free energy    TOTEN  =      -417.45033297 eV

  energy without entropy =     -417.45033297  energy(sigma->0) =     -417.45033297


--------------------------------------------------------------------------------------------------------




--------------------------------------- Iteration      1(  25)  ---------------------------------------


    POTLOK:  cpu time    4.2083: real time    4.2402
    SETDIJ:  cpu time    0.0560: real time    0.0562
    TRIAL :  cpu time    1.1561: real time    1.1671
    CORREC:  cpu time    4.6891: real time    4.7264
    CHARGE:  cpu time    0.1812: real time    0.1830
    --------------------------------------------
      LOOP:  cpu time   10.3398: real time   10.4243

 eigenvalue-minimisations  :     0
 total energy-change (2. order) :-0.4580070E-06  (-0.2065000E-06)
 number of electron     216.0000000 magnetization 
 augmentation part       -0.4135183 magnetization 

 Free energy of the ion-electron system (eV)
  ---------------------------------------------------
  alpha Z        PSCENC =        47.94900195
  Ewald energy   TEWEN  =     44792.55775787
  -Hartree energ DENC   =    -51757.92934664
  -exchange      EXHF   =         0.00000000
  -V(xc)+E(xc)   XCENC  =       443.97047593
  PAW double counting   =    106998.32831972  -106704.84152766
  entropy T*S    EENTRO =        -0.00000000
  eigenvalues    EBANDS =     -2652.52050166
  atomic energy  EATOM  =      8415.03548706
  ---------------------------------------------------
  free energy    TOTEN  =      -417.45033343 eV

  energy without entropy =     -417.45033343  energy(sigma->0) =     -417.45033343


--------------------------------------------------------------------------------------------------------




--------------------------------------- Iteration      1(  26)  ---------------------------------------


    POTLOK:  cpu time    4.2140: real time    4.2455
    SETDIJ:  cpu time    0.0560: real time    0.0562
    TRIAL :  cpu time    1.1648: real time    1.1773
    CORREC:  cpu time    4.7136: real time    4.7520
    CHARGE:  cpu time    0.1810: real time    0.1827
    --------------------------------------------
      LOOP:  cpu time   10.4072: real time   10.4935

 eigenvalue-minimisations  :     0
 total energy-change (2. order) :-0.2133020E-06  (-0.9553602E-07)
 number of electron     216.0000000 magnetization 
 augmentation part       -0.4135172 magnetization 

 Free energy of the ion-electron system (eV)
  ---------------------------------------------------
  alpha Z        PSCENC =        47.94900195
  Ewald energy   TEWEN  =     44792.55775787
  -Hartree energ DENC   =    -51757.93148958
  -exchange      EXHF   =         0.00000000
  -V(xc)+E(xc)   XCENC  =       443.97055193
  PAW double counting   =    106998.40890012  -106704.92208907
  entropy T*S    EENTRO =        -0.00000000
  eigenvalues    EBANDS =     -2652.51845393
  atomic energy  EATOM  =      8415.03548706
  ---------------------------------------------------
  free energy    TOTEN  =      -417.45033364 eV

  energy without entropy =     -417.45033364  energy(sigma->0) =     -417.45033364


--------------------------------------------------------------------------------------------------------




--------------------------------------- Iteration      1(  27)  ---------------------------------------


    POTLOK:  cpu time    4.2050: real time    4.2351
    SETDIJ:  cpu time    0.0560: real time    0.0562
    TRIAL :  cpu time    1.1869: real time    1.1993
    CORREC:  cpu time    4.8989: real time    4.9454
    EDDIAG:  cpu time    0.4393: real time    0.4469
    CHARGE:  cpu time    0.1801: real time    0.1818
    --------------------------------------------
      LOOP:  cpu time   11.0129: real time   11.1461

 eigenvalue-minimisations  :     0
 total energy-change (2. order) :-0.9840005E-07  (-0.4933801E-07)
 number of electron     216.0000000 magnetization 
 augmentation part       -0.4135141 magnetization 

 Free energy of the ion-electron system (eV)
  ---------------------------------------------------
  alpha Z        PSCENC =        47.94900195
  Ewald energy   TEWEN  =     44792.55775787
  -Hartree energ DENC   =    -51757.93177977
  -exchange      EXHF   =         0.00000000
  -V(xc)+E(xc)   XCENC  =       443.97051948
  PAW double counting   =    106998.42074455  -106704.93392269
  entropy T*S    EENTRO =        -0.00000000
  eigenvalues    EBANDS =     -2652.51814218
  atomic energy  EATOM  =      8415.03548706
  ---------------------------------------------------
  free energy    TOTEN  =      -417.45033374 eV

  energy without entropy =     -417.45033374  energy(sigma->0) =     -417.45033374


--------------------------------------------------------------------------------------------------------


  average scaling for gradient   0.9808


 average (electrostatic) potential at core
  the test charge radii are     0.5770  0.5955
  (the norm of the test charge is              1.0000)
       1 -86.0261       2 -86.0248       3 -86.0279       4 -86.0302       5 -86.0229
       6 -86.0219       7 -86.0274       8 -86.0243       9 -86.0244      10 -86.0271
[...]
      21 -86.0218      22 -86.0213      23 -86.0314      24 -86.0310      25 -86.0216
      26 -86.0226      27 -86.0248      28 -86.0273      29 -86.0220      30 -86.0218
      31 -86.0291      32 -86.0269      33 -86.0233      34 -86.0224      35 -86.0224
      36 -86.0231      37 -86.0246      38 -86.0254      39 -86.0256      40 -86.0251
      41 -86.0252      42 -86.0262      43 -86.0239      44 -86.0262      45 -86.0218
      46 -86.0223      47 -86.0228      48 -86.0221      49 -86.0251      50 -86.0240
      51 -89.9274      52-120.4456      53-120.4456
 
 
 
 E-fermi :  -4.4091     XC(G=0):  -2.2503     alpha+bet : -1.6890

 Fermi energy:        -4.4090706799

 k-point     1 :       0.0000    0.0000    0.0000
  band No.  band energies     occupation 
      1     -27.6547      2.00000
      2     -26.6614      2.00000
      3     -22.4391      2.00000
      4     -21.5029      2.00000
      5     -21.5023      2.00000
      6     -21.5018      2.00000
      7     -21.5005      2.00000
      8     -21.4995      2.00000
      9     -21.4994      2.00000
     10     -19.6630      2.00000
     11     -19.6627      2.00000
     12     -19.6625      2.00000
     13     -19.6624      2.00000
     14     -19.6623      2.00000
     15     -19.6621      2.00000
     16     -18.7679      2.00000
     17     -18.7679      2.00000
     18     -18.7675      2.00000
     19     -18.7670      2.00000
     20     -18.7669      2.00000
     21     -18.7667      2.00000
     22     -16.6074      2.00000
     23     -16.6072      2.00000
     24     -16.6065      2.00000
     25     -16.6062      2.00000
     26     -16.6052      2.00000
     27     -16.6050      2.00000
     28     -15.6281      2.00000
     29     -15.6280      2.00000
     30     -15.6278      2.00000
     31     -15.6277      2.00000
     32     -15.6269      2.00000
     33     -15.6268      2.00000
     34     -14.2795      2.00000
     35     -14.2794      2.00000
     36     -14.2789      2.00000
     37     -14.2787      2.00000
     38     -14.2786      2.00000
     39     -14.2783      2.00000
     40     -12.4974      2.00000
     41     -11.9034      2.00000
     42     -11.9031      2.00000
     43     -11.9027      2.00000
     44     -11.9027      2.00000
     45     -11.9018      2.00000
     46     -11.9016      2.00000
     47     -11.8108      2.00000
     48     -11.8108      2.00000
     49     -11.8102      2.00000
     50     -11.8101      2.00000
     51     -11.8092      2.00000
     52     -11.8090      2.00000
     53     -11.3402      2.00000
     54     -11.2784      2.00000
     55     -11.2772      2.00000
     56     -10.5962      2.00000
     57     -10.4404      2.00000
     58     -10.4403      2.00000
     59     -10.4390      2.00000
     60     -10.4386      2.00000
     61     -10.4384      2.00000
     62     -10.4383      2.00000
     63      -9.4827      2.00000
     64      -9.4811      2.00000
     65      -9.4788      2.00000
     66      -9.4779      2.00000
     67      -9.4761      2.00000
     68      -9.4761      2.00000
     69      -9.1765      2.00000
     70      -9.1756      2.00000
     71      -9.1754      2.00000
     72      -9.1749      2.00000
     73      -9.1744      2.00000
     74      -9.1743      2.00000
     75      -9.1166      2.00000
     76      -9.1165      2.00000
     77      -9.1164      2.00000
     78      -9.1163      2.00000
     79      -9.1156      2.00000
     80      -9.1148      2.00000
     81      -7.7417      2.00000
     82      -7.7406      2.00000
     83      -7.5270      2.00000
     84      -7.5260      2.00000
     85      -7.5256      2.00000
     86      -7.5251      2.00000
     87      -7.5236      2.00000
     88      -7.5235      2.00000
     89      -7.3492      2.00000
     90      -7.3491      2.00000
     91      -7.3486      2.00000
     92      -7.3481      2.00000
     93      -7.3478      2.00000
     94      -7.3476      2.00000
     95      -6.4527      2.00000
     96      -6.4515      2.00000
     97      -6.4512      2.00000
     98      -6.4508      2.00000
     99      -6.4504      2.00000
    100      -6.4499      2.00000
    101      -6.0474      2.00000
    102      -6.0452      2.00000
    103      -4.4679      2.00000
    104      -4.4676      2.00000
    105      -4.4675      2.00000
    106      -4.4669      2.00000
    107      -4.4647      2.00000
    108      -4.4645      2.00000
    109      -1.6679      0.00000
    110      -1.6677      0.00000
    111      -1.6659      0.00000
    112      -1.6656      0.00000
    113      -1.6654      0.00000
    114      -1.6653      0.00000
    115      -0.3271      0.00000
    116       0.1927      0.00000
    117       0.1936      0.00000
    118       0.1942      0.00000
    119       0.1952      0.00000
    120       0.1954      0.00000
    121       0.1978      0.00000
    122       0.2322      0.00000
    123       0.8256      0.00000
    124       0.8899      0.00000
    125       1.0051      0.00000
    126       1.0813      0.00000
    127       1.1291      0.00000
    128       1.1332      0.00000
    129       1.1360      0.00000
    130       1.1554      0.00000
    131       1.3921      0.00000
    132       1.5580      0.00000
    133       1.6669      0.00000
    134       1.7495      0.00000
    135       1.7880      0.00000
    136       1.8852      0.00000


--------------------------------------------------------------------------------------------------------


 soft charge-density along one line, spin component           1
         0         1         2         3         4         5         6         7         8         9
 total charge-density along one line
 
 pseudopotential strength for first ion, spin component:           1
 12.721  21.408  -0.000   0.000   0.000  -0.000   0.000   0.000
 21.408  36.024  -0.000   0.000   0.000  -0.000   0.000   0.000
 -0.000  -0.000  -3.197  -0.000   0.000  -5.729  -0.000   0.000
  0.000   0.000  -0.000  -3.199  -0.000  -0.000  -5.733  -0.000
  0.000   0.000   0.000  -0.000  -3.197   0.000  -0.000  -5.729
 -0.000  -0.000  -5.729  -0.000   0.000 -10.246  -0.000   0.000
  0.000   0.000  -0.000  -5.733  -0.000  -0.000 -10.253  -0.000
  0.000   0.000   0.000  -0.000  -5.729   0.000  -0.000 -10.246
 total augmentation occupancy for first ion, spin component:           1
  7.653  -2.660  -0.000  -0.002  -0.000   0.000   0.001   0.000
 -2.660   0.962   0.000   0.001  -0.000  -0.000  -0.000   0.000
 -0.000   0.000   7.068  -0.008   0.000  -2.370   0.003  -0.000
 -0.002   0.001  -0.008   3.114  -0.000   0.003  -0.813   0.000
 -0.000  -0.000   0.000  -0.000   7.068  -0.000   0.000  -2.370
  0.000  -0.000  -2.370   0.003  -0.000   0.809  -0.001   0.000
  0.001  -0.000   0.003  -0.813   0.000  -0.001   0.219  -0.000
  0.000   0.000  -0.000   0.000  -2.370   0.000  -0.000   0.809


------------------------ aborting loop because EDIFF is reached ----------------------------------------


    FORLOC:  cpu time    0.0675: real time    0.0680
    FORNL :  cpu time    0.8417: real time    0.8463
    FORCOR:  cpu time    4.5604: real time    4.5931
    OFIELD:  cpu time    0.0015: real time    0.0015

 VOLUME and BASIS-vectors are now :
 -----------------------------------------------------------------------------
  energy-cutoff  :     1000.00
  volume of cell :     3288.85
      direct lattice vectors                 reciprocal lattice vectors
    12.325000000  0.000000000  0.000000000     0.081135903  0.046843835  0.000000000
    -6.162500000 10.673763102  0.000000000     0.000000000  0.093687670  0.000000000
     0.000000000  0.000000000 25.000000000     0.000000000  0.000000000  0.040000000

  length of vectors
    12.325000000 12.325000000 25.000000000     0.093687670  0.093687670  0.040000000


 FORCES acting on ions:
    Electron-Ion                     Ewald-Force                    Non-Local-Force
 -----------------------------------------------------------------------------------------------
   0.443E+01 0.385E+01 0.240E+02   -.443E+01 -.385E+01 -.240E+02   0.859E-02 -.122E-02 0.823E-02
   0.652E+01 0.317E+01 0.275E+02   -.653E+01 -.317E+01 -.275E+02   0.986E-02 -.502E-02 -.473E-02
   0.283E+01 0.756E+01 0.302E+02   -.283E+01 -.757E+01 -.302E+02   -.746E-03 0.191E-01 0.882E-02
   0.380E+01 0.551E+01 0.380E+02   -.381E+01 -.551E+01 -.380E+02   0.179E-01 0.384E-02 0.539E-02
   0.473E+01 0.112E+01 0.242E+02   -.473E+01 -.112E+01 -.242E+02   0.274E-02 -.867E-02 0.213E-04
   0.486E+01 -.942E+00 0.245E+02   -.486E+01 0.946E+00 -.245E+02   -.701E-02 0.166E-02 -.801E-02
   0.714E+01 0.262E+01 0.357E+02   -.715E+01 -.261E+01 -.357E+02   0.215E-01 -.242E-01 0.136E-02
   0.691E+01 -.247E+01 0.370E+02   -.693E+01 0.248E+01 -.370E+02   0.208E-02 -.115E-01 -.714E-02
   -.336E+01 0.681E+01 0.304E+02   0.337E+01 -.682E+01 -.304E+02   -.657E-02 -.715E-02 -.645E-02
   -.516E+01 0.434E+01 0.372E+02   0.517E+01 -.435E+01 -.372E+02   -.364E-01 0.221E-01 0.896E-02
   0.122E+01 -.119E+01 0.216E+02   -.122E+01 0.119E+01 -.216E+02   0.164E-02 -.207E-02 -.333E-02
   0.105E+01 -.874E+00 0.208E+02   -.104E+01 0.872E+00 -.208E+02   -.992E-02 0.452E-02 0.325E-02
   0.276E+01 -.592E+01 0.397E+02   -.277E+01 0.593E+01 -.397E+02   0.371E-01 -.151E-01 0.387E-02
   0.153E+01 -.757E+01 0.313E+02   -.154E+01 0.757E+01 -.313E+02   0.101E-01 0.142E-02 -.174E-01
   -.426E+01 0.263E+01 0.236E+02   0.426E+01 -.263E+01 -.236E+02   0.758E-02 -.356E-02 0.172E-02
   -.587E+01 0.173E+01 0.253E+02   0.587E+01 -.174E+01 -.253E+02   -.517E-02 0.830E-02 -.102E-01
   -.743E+00 -.294E+00 0.202E+02   0.750E+00 0.291E+00 -.202E+02   -.362E-02 0.147E-02 0.132E-02
   0.351E+00 0.260E+01 0.209E+02   -.348E+00 -.260E+01 -.209E+02   -.523E-02 0.316E-02 0.917E-02
   -.114E+01 -.703E+01 0.271E+02   0.114E+01 0.703E+01 -.271E+02   0.106E-01 -.537E-02 0.227E-02
   -.592E+00 -.391E+01 0.222E+02   0.586E+00 0.392E+01 -.222E+02   0.306E-02 -.371E-02 -.133E-02
   0.652E+01 -.288E+01 0.288E+02   -.652E+01 0.288E+01 -.288E+02   0.182E-02 -.547E-02 -.239E-01
   0.430E+01 -.359E+01 0.255E+02   -.431E+01 0.359E+01 -.255E+02   -.668E-02 0.572E-02 -.883E-02
   -.132E+01 0.255E+01 0.429E+02   0.133E+01 -.255E+01 -.429E+02   -.149E-01 0.148E-01 0.260E-01
   -.182E+01 -.400E+01 0.421E+02   0.182E+01 0.400E+01 -.421E+02   0.151E-01 -.211E-01 0.128E-01
   0.224E+01 -.901E+00 0.217E+02   -.223E+01 0.899E+00 -.217E+02   0.114E-02 -.161E-02 -.710E-02
   0.494E+00 0.197E+01 0.217E+02   -.491E+00 -.197E+01 -.218E+02   -.823E-02 0.513E-02 0.224E-02
   -.763E+01 0.105E+01 0.319E+02   0.765E+01 -.105E+01 -.319E+02   0.372E-02 0.122E-01 -.256E-02
   -.731E+01 -.292E+01 0.305E+02   0.732E+01 0.291E+01 -.305E+02   -.166E-01 0.121E-01 0.619E-02
   0.256E+01 -.514E+01 0.261E+02   -.257E+01 0.514E+01 -.261E+02   0.858E-02 0.119E-02 -.123E-01
   0.226E+00 -.214E+01 0.226E+02   -.230E+00 0.214E+01 -.226E+02   -.311E-02 0.283E-02 -.627E-02
   -.544E+01 -.570E+01 0.342E+02   0.544E+01 0.570E+01 -.342E+02   -.180E-01 -.117E-01 0.204E-02
   -.364E+01 -.671E+01 0.279E+02   0.364E+01 0.672E+01 -.279E+02   0.650E-03 -.729E-02 0.848E-02
   0.291E+00 0.115E+01 0.207E+02   -.295E+00 -.115E+01 -.207E+02   0.790E-02 -.590E-02 0.501E-02
   0.759E+00 0.114E+01 0.215E+02   -.763E+00 -.113E+01 -.215E+02   -.113E-02 0.345E-02 -.393E-02
   -.299E+01 0.460E+00 0.225E+02   0.299E+01 -.462E+00 -.225E+02   0.397E-02 -.145E-02 0.213E-02
   -.263E+01 -.110E+01 0.222E+02   0.263E+01 0.110E+01 -.222E+02   -.738E-02 0.418E-02 0.108E-02
   -.514E+01 -.267E+01 0.241E+02   0.515E+01 0.267E+01 -.241E+02   -.669E-02 0.179E-02 0.353E-02
   -.323E+01 -.258E+01 0.219E+02   0.323E+01 0.258E+01 -.219E+02   -.719E-02 0.155E-02 0.976E-02
   -.296E+01 -.381E+01 0.228E+02   0.296E+01 0.382E+01 -.228E+02   -.575E-02 -.171E-02 0.707E-02
   -.448E+00 -.972E+00 0.210E+02   0.448E+00 0.973E+00 -.210E+02   0.254E-02 -.532E-03 0.831E-02
   0.111E+01 0.275E+01 0.214E+02   -.111E+01 -.275E+01 -.214E+02   -.457E-02 0.421E-02 0.812E-02
   0.346E+01 0.541E+01 0.246E+02   -.346E+01 -.542E+01 -.247E+02   0.266E-02 0.215E-02 0.116E-01
   0.305E+00 0.467E+01 0.225E+02   -.298E+00 -.468E+01 -.225E+02   -.361E-02 0.433E-02 0.118E-02
   -.797E-01 0.748E+01 0.278E+02   0.876E-01 -.749E+01 -.278E+02   -.135E-01 0.665E-02 0.745E-02
   -.881E+00 0.170E+01 0.224E+02   0.884E+00 -.171E+01 -.224E+02   0.302E-02 -.283E-02 -.287E-02
   -.346E+01 0.428E+01 0.249E+02   0.347E+01 -.428E+01 -.249E+02   -.974E-02 0.214E-02 -.687E-02
   -.741E+00 -.194E+01 0.215E+02   0.737E+00 0.194E+01 -.215E+02   0.933E-02 -.234E-02 0.314E-02
   -.176E+01 0.673E+00 0.209E+02   0.176E+01 -.671E+00 -.209E+02   -.134E-02 0.259E-02 -.609E-02
   0.177E+00 -.121E+01 0.208E+02   -.180E+00 0.121E+01 -.208E+02   0.617E-02 -.396E-02 0.592E-02
   0.192E+01 0.138E+01 0.209E+02   -.192E+01 -.138E+01 -.209E+02   0.325E-02 0.106E-02 0.309E-02
   0.287E-01 -.706E-02 -.329E+03   -.295E-01 0.851E-02 0.329E+03   -.352E-02 0.233E-02 -.136E-01
   -.229E+03 0.156E+03 -.507E+03   0.279E+03 -.190E+03 0.510E+03   -.512E+02 0.348E+02 -.347E+01
   0.229E+03 -.156E+03 -.485E+03   -.279E+03 0.190E+03 0.482E+03   0.512E+02 -.348E+02 0.305E+01
 -----------------------------------------------------------------------------------------------
   -.282E-02 0.108E-01 0.380E+00   0.171E-12 -.142E-12 0.000E+00   0.271E-02 -.108E-01 -.381E+00
 
 
 POSITION                                       TOTAL-FORCE (eV/Angst)
 -----------------------------------------------------------------------------------
     11.98348      0.00342      0.01417         0.002842     -0.001232     -0.000677
     -0.34154      1.42665      0.01100        -0.001931     -0.000099     -0.002183
      2.12355      0.00315      0.01249        -0.001277      0.008437     -0.004302
      2.12326      1.42653      0.00641         0.011112      0.000672     -0.003927
     10.75099      2.13819      0.01213         0.000092     -0.005086      0.000361
     -1.57382      3.56123      0.01110        -0.007991      0.005111     -0.001005
      0.89078      2.13854      0.00548         0.007599     -0.016892      0.004964
      0.89099      3.56147      0.00181        -0.013076     -0.001355      0.013956
      4.58864      0.00346      0.01135         0.004473     -0.016654     -0.001930
      4.58894      1.42623      0.00646        -0.020492      0.011440      0.016763
      9.51854      4.27281      0.01369         0.006845     -0.003409      0.000383
     -2.80632      5.69591      0.01434        -0.006255      0.003283      0.000875
      2.12300      4.27302      0.00000         0.021806     -0.003661      0.023309
      2.12335      5.69594      0.00581        -0.001403      0.010028     -0.000997
      7.05344      0.00333      0.01399         0.008748     -0.004890     -0.000031
      7.05353      1.42635      0.01368        -0.001420      0.004418     -0.002922
      8.28610      6.40752      0.01601         0.003397     -0.001580     -0.000596
     -4.03885      7.83070      0.01636        -0.001903      0.000916     -0.000041
      3.35586      6.40753      0.01007         0.004321      0.000585     -0.000626
      3.35599      7.83072      0.01320        -0.003471      0.000585     -0.000290
     -0.34146      4.27290      0.00723        -0.002080     -0.001063     -0.003194
     -0.34138      5.69591      0.00946        -0.008671      0.005786     -0.000573
      3.35624      2.13791      0.00222        -0.011663      0.010450      0.021377
      3.35573      3.56155      0.00139         0.012075     -0.013864      0.013514
     -1.57395      6.40758      0.01311         0.006054     -0.004136     -0.000367
     -1.57385      7.83068      0.01438        -0.004549      0.003689      0.000234
      5.82093      2.13784      0.01033         0.017083      0.004458     -0.001176
      5.82114      3.56097      0.01156        -0.004921      0.007114     -0.002028
      0.89092      6.40755      0.00907         0.004003      0.002036     -0.001531
      0.89106      7.83068      0.01235        -0.007044      0.003310      0.000580
      4.58871      4.27293      0.00850        -0.010641     -0.005610     -0.007548
      4.58852      5.69606      0.01149         0.001788      0.000561     -0.002763
      9.51845      0.00337      0.01490         0.004521     -0.004564      0.000262
      9.51855      1.42644      0.01438        -0.005035      0.005791     -0.000103
      8.28593      2.13803      0.01453         0.006092     -0.003658      0.000808
      8.28613      3.56115      0.01464        -0.004049      0.001910      0.000217
      7.05356      4.27269      0.01457         0.003649     -0.000925      0.000011
      7.05362      5.69588      0.01553        -0.002279      0.001291      0.000028
      5.82112      6.40755      0.01489        -0.002226      0.001869      0.000309
      5.82102      7.83073      0.01579         0.002563      0.000548     -0.000194
      7.05363      8.54227      0.01631        -0.004475      0.000724      0.001263
     -5.27149      9.96549      0.01495        -0.000762     -0.002570     -0.001535
     -2.80638      8.54234      0.01558         0.003472     -0.001998     -0.000719
     -2.80627      9.96553      0.01362        -0.005292     -0.000402     -0.002786
     -0.34149      8.54239      0.01378         0.005834     -0.004373      0.000464
     -0.34138      9.96550      0.01354        -0.005465      0.000053     -0.000570
      2.12343      8.54232      0.01336         0.005592     -0.001483      0.000874
      2.12354      9.96544      0.01469        -0.005704      0.004000     -0.001654
      4.58846      8.54235      0.01505         0.003512     -0.002823      0.001060
      4.58853      9.96550      0.01517        -0.003346      0.003315      0.000382
      3.04930      2.68154      5.00000        -0.004236      0.003729      0.007608
      4.02070      2.02068      5.06442        -0.542275      0.368521     -0.065061
      2.07767      3.34267      4.94055         0.546459     -0.372306      0.001728
 -----------------------------------------------------------------------------------
    total drift:                               -0.000116     -0.000032     -0.001491


--------------------------------------------------------------------------------------------------------



  FREE ENERGIE OF THE ION-ELECTRON SYSTEM (eV)
  ---------------------------------------------------
  free  energy   TOTEN  =      -417.45033374 eV

  energy  without entropy=     -417.45033374  energy(sigma->0) =     -417.45033374
 


--------------------------------------------------------------------------------------------------------


    POTLOK:  cpu time    4.2810: real time    4.3152


--------------------------------------------------------------------------------------------------------


 writing wavefunctions
     LOOP+:  cpu time  285.1386: real time  287.8426
    4ORBIT:  cpu time    0.0000: real time    0.0000

 total amount of memory used by VASP MPI-rank0   100580. kBytes
=======================================================================

   base      :      30000. kBytes
   nonl-proj :       8229. kBytes
   fftplans  :      18352. kBytes
   grid      :      30208. kBytes
   one-center:          6. kBytes
   wavefun   :      13785. kBytes
 
  
  
 General timing and accounting informations for this job:
 ========================================================
  
                  Total CPU time used (sec):      328.876
                            User time (sec):      302.248
                          System time (sec):       26.628
                         Elapsed time (sec):      332.706
  
                   Maximum memory used (kb):      816284.
                   Average memory used (kb):          N/A
  
                          Minor page faults:       437522
                          Major page faults:           74
                 Voluntary context switches:         3779
