 vasp.6.2.1 16May21 (build Nov 06 2021 14:46:37) complex                        
  
 executed on             LinuxIFC date 2025.03.03  16:17:08
 running on  112 total cores
 distrk:  each k-point on  112 cores,    1 groups
 distr:  one band on NCORE=  28 cores,    4 groups


--------------------------------------------------------------------------------------------------------


 INCAR:
   ALGO = Conjugate
   NPAR = 4
   ISMEAR = 0
   SIGMA = 0.01
   PREC = Accurate
   EDIFF = 1E-7
   ENCUT = 1000
   ISIF = 0
   GGA = MK
   PARAM1 = 0.1234
   PARAM2 = 1.0000
   LUSE_VDW = .TRUE.
   AGGAC = 0.0000
   LASPH = .TRUE.
   SYMPREC = 1E-7

 POTCAR:    PAW_PBE C_h 06Feb2004                 
 POTCAR:    PAW_PBE O_h 06Feb2004                 
 -----------------------------------------------------------------------------
|                                                                             |
|           W    W    AA    RRRRR   N    N  II  N    N   GGGG   !!!           |
|           W    W   A  A   R    R  NN   N  II  NN   N  G    G  !!!           |
|           W    W  A    A  R    R  N N  N  II  N N  N  G       !!!           |
|           W WW W  AAAAAA  RRRRR   N  N N  II  N  N N  G  GGG   !            |
|           WW  WW  A    A  R   R   N   NN  II  N   NN  G    G                |
|           W    W  A    A  R    R  N    N  II  N    N   GGGG   !!!           |
|                                                                             |
|     For optimal performance we recommend to set                             |
|       NCORE = 2 up to number-of-cores-per-socket                            |
|     NCORE specifies how many cores store one orbital (NPAR=cpu/NCORE).      |
|     This setting can greatly improve the performance of VASP for DFT.       |
|     The default, NCORE=1 might be grossly inefficient on modern             |
|     multi-core architectures or massively parallel machines. Do your        |
|     own testing! More info at https://www.vasp.at/wiki/index.php/NCORE      |
|     Unfortunately you need to use the default for GW and RPA                |
|     calculations (for HF NCORE is supported but not extensively tested      |
|     yet).                                                                   |
|                                                                             |
 -----------------------------------------------------------------------------

 -----------------------------------------------------------------------------
|                                                                             |
|               ----> ADVICE to this user running VASP <----                  |
|                                                                             |
|     You have switched on vdW-DFT.                                           |
|     This routine was written and supplied by Jiri Klimes. We recommend      |
|     that you carefully read and cite the following publications:            |
|       J. Klimes, D.R. Bowler, A. Michelides                                 |
|          J. Phys.: Cond Matt. 22 022201 (2010)                              |
|       J. Klimes, D.R. Bowler, A. Michelides                                 |
|          Phys. Rev. B. 83, 195131 (2011)                                    |
|     and references therein.                                                 |
|                                                                             |
 -----------------------------------------------------------------------------

 POTCAR:    PAW_PBE C_h 06Feb2004                 
   VRHFIN =C: s2p2                                                                                  
   LEXCH  = PE                                                                                      
   EATOM  =   147.1560 eV,   10.8157 Ry                                                             
                                                                                                    
   TITEL  = PAW_PBE C_h 06Feb2004                                                                   
   LULTRA =        F    use ultrasoft PP ?                                                          
   IUNSCR =        1    unscreen: 0-lin 1-nonlin 2-no                                               
   RPACOR =    0.800    partial core radius                                                         
   POMASS =   12.011; ZVAL   =    4.000    mass and valenz                                          
   RCORE  =    1.100    outmost cutoff radius                                                       
   RWIGS  =    1.630; RWIGS  =    0.863    wigner-seitz radius (au A)                               
   ENMAX  =  700.000; ENMIN  =  500.000 eV                                                          
   ICORE  =        2    local potential                                                             
   LCOR   =        T    correct aug charges                                                         
   LPAW   =        T    paw PP                                                                      
   EAUG   =  946.768                                                                                
   DEXC   =    0.000                                                                                
   RMAX   =    1.128    core radius for proj-oper                                                   
   RAUG   =    1.300    factor for augmentation sphere                                              
   RDEP   =    1.162    radius for radial grids                                                     
   RDEPT  =    1.088    core radius for aug-charge                                                  
                                                                                                    
   Atomic configuration                                                                             
    4 entries                                                                                       
     n  l   j            E        occ.                                                              
     1  0  0.50      -273.3789   2.0000                                                             
     2  0  0.50       -13.7508   2.0000                                                             
     2  1  0.50        -5.2854   2.0000                                                             
     3  2  1.50        -5.4423   0.0000                                                             
   Description                                                                                      
     l       E           TYP  RCUT    TYP  RCUT                                                     
     0    -13.7508458     23  1.100                                                                 
     0     -8.2022199     23  1.100                                                                 
     1     -5.2854383     23  1.100                                                                 
     1      1.1560700     23  1.100                                                                 
     2     -5.4423304      7  1.100                                                                 
  local pseudopotential read in
  partial core-charges read in
  partial kinetic energy density read in
  atomic valenz-charges read in
  non local Contribution for L=           0  read in
    real space projection operators read in
  non local Contribution for L=           0  read in
    real space projection operators read in
  non local Contribution for L=           1  read in
    real space projection operators read in
  non local Contribution for L=           1  read in
    real space projection operators read in
    PAW grid and wavefunctions read in
 
   number of l-projection  operators is LMAX  =           4
   number of lm-projection operators is LMMAX =           8
 
 POTCAR:    PAW_PBE O_h 06Feb2004                 
   VRHFIN =O: s2p4                                                                                  
   LEXCH  = PE                                                                                      
   EATOM  =   432.3788 eV,   31.7789 Ry                                                             
                                                                                                    
   TITEL  = PAW_PBE O_h 06Feb2004                                                                   
   LULTRA =        F    use ultrasoft PP ?                                                          
   IUNSCR =        1    unscreen: 0-lin 1-nonlin 2-no                                               
   RPACOR =    0.800    partial core radius                                                         
   POMASS =   16.000; ZVAL   =    6.000    mass and valenz                                          
   RCORE  =    1.100    outmost cutoff radius                                                       
   RWIGS  =    1.400; RWIGS  =    0.741    wigner-seitz radius (au A)                               
   ENMAX  =  700.000; ENMIN  =  500.000 eV                                                          
   ICORE  =        2    local potential                                                             
   LCOR   =        T    correct aug charges                                                         
   LPAW   =        T    paw PP                                                                      
   EAUG   =  888.804                                                                                
   DEXC   =    0.000                                                                                
   RMAX   =    1.128    core radius for proj-oper                                                   
   RAUG   =    1.300    factor for augmentation sphere                                              
   RDEP   =    1.125    radius for radial grids                                                     
   RDEPT  =    1.088    core radius for aug-charge                                                  
                                                                                                    
   Atomic configuration                                                                             
    4 entries                                                                                       
     n  l   j            E        occ.                                                              
     1  0  0.50      -514.6923   2.0000                                                             
     2  0  0.50       -23.9615   2.0000                                                             
     2  1  0.50        -9.0305   4.0000                                                             
     3  2  1.50        -9.5241   0.0000                                                             
   Description                                                                                      
     l       E           TYP  RCUT    TYP  RCUT                                                     
     0    -23.9615319     23  1.100                                                                 
     0    -25.3221145     23  1.100                                                                 
     1     -9.0304911     23  1.100                                                                 
     1     -5.4802209     23  1.100                                                                 
     2     -9.5240782      7  1.100                                                                 
  local pseudopotential read in
  partial core-charges read in
  partial kinetic energy density read in
  atomic valenz-charges read in
  non local Contribution for L=           0  read in
    real space projection operators read in
  non local Contribution for L=           0  read in
    real space projection operators read in
  non local Contribution for L=           1  read in
    real space projection operators read in
  non local Contribution for L=           1  read in
    real space projection operators read in
    PAW grid and wavefunctions read in
 
   number of l-projection  operators is LMAX  =           4
   number of lm-projection operators is LMMAX =           8
 
 -----------------------------------------------------------------------------
|                                                                             |
|               ----> ADVICE to this user running VASP <----                  |
|                                                                             |
|     You have a (more or less) 'large supercell' and for larger cells it     |
|     might be more efficient to use real-space projection operators.         |
|     Therefore, try LREAL= Auto in the INCAR file.                           |
|     Mind: For very accurate calculation, you might also keep the            |
|     reciprocal projection scheme (i.e. LREAL=.FALSE.).                      |
|                                                                             |
 -----------------------------------------------------------------------------

 -----------------------------------------------------------------------------
|                                                                             |
|               ----> ADVICE to this user running VASP <----                  |
|                                                                             |
|     You enforced a specific xc type in the INCAR file but a different       |
|     type was found in the POTCAR file.                                      |
|     I HOPE YOU KNOW WHAT YOU ARE DOING!                                     |
|                                                                             |
 -----------------------------------------------------------------------------

  PAW_PBE C_h 06Feb2004                 :
 energy of atom  1       EATOM= -147.1560
 kinetic energy error for atom=    0.0031 (will be added to EATOM!!)
  PAW_PBE O_h 06Feb2004                 :
 energy of atom  2       EATOM= -432.3788
 kinetic energy error for atom=    0.0171 (will be added to EATOM!!)
 
 
 POSCAR:  C  O
  positions in cartesian coordinates
  No initial velocities read in
 exchange correlation table for  LEXCH =       43
   RHO(1)=    0.500       N(1)  =     2000
   RHO(2)=  100.500       N(2)  =     4000
 


--------------------------------------------------------------------------------------------------------


 ion  position               nearest neighbor table
   1  0.972  0.000  0.001-  50 1.42   2 1.42  42 1.42
   2  0.039  0.134  0.001-   5 1.42   7 1.42   1 1.42
   3  0.172  0.000  0.001-  42 1.42  44 1.42   4 1.42
   4  0.239  0.134  0.000-   7 1.42   3 1.42  23 1.42
   5  0.972  0.200  0.001-   6 1.42   2 1.42  34 1.42
   6  0.039  0.334  0.001-   5 1.42  21 1.42  11 1.42
   7  0.172  0.200  0.000-   8 1.42   2 1.42   4 1.42
   8  0.239  0.334  0.000-  13 1.42   7 1.42  21 1.42
   9  0.372  0.000  0.001-  10 1.42  44 1.42  46 1.42
  10  0.439  0.134  0.000-  27 1.42   9 1.42  23 1.42
  11  0.972  0.400  0.001-  12 1.42  36 1.42   6 1.42
  12  0.039  0.534  0.001-  25 1.42  11 1.42  17 1.42
  13  0.372  0.400  0.000-   8 1.42  14 1.42  24 1.42
  14  0.439  0.534  0.000-  13 1.42  29 1.42  19 1.42
  15  0.572  0.000  0.001-  46 1.42  16 1.42  48 1.42
  16  0.639  0.134  0.001-  15 1.42  35 1.42  27 1.42
  17  0.972  0.600  0.001-  38 1.42  18 1.42  12 1.42
  18  0.039  0.734  0.001-  43 1.42  41 1.42  17 1.42
  19  0.572  0.600  0.001-  14 1.42  20 1.42  32 1.42
  20  0.639  0.734  0.001-  49 1.42  19 1.42  47 1.42
  21  0.172  0.400  0.000-  22 1.42   8 1.42   6 1.42
  22  0.239  0.534  0.000-  21 1.42  29 1.42  25 1.42
  23  0.372  0.200  0.000-  10 1.42   4 1.42  24 1.42
  24  0.439  0.334  0.000-  13 1.42  31 1.42  23 1.42
  25  0.172  0.600  0.001-  26 1.42  12 1.42  22 1.42
  26  0.239  0.734  0.001-  25 1.42  45 1.42  43 1.42
  27  0.572  0.200  0.001-  10 1.42  28 1.42  16 1.42
  28  0.639  0.334  0.001-  27 1.42  37 1.42  31 1.42
  29  0.372  0.600  0.000-  22 1.42  14 1.42  30 1.42
  30  0.439  0.734  0.001-  47 1.42  29 1.42  45 1.42
  31  0.572  0.400  0.000-  32 1.42  28 1.42  24 1.42
  32  0.639  0.534  0.001-  31 1.42  39 1.42  19 1.42
  33  0.772  0.000  0.001-  34 1.42  48 1.42  50 1.42
  34  0.839  0.134  0.001-  33 1.42   5 1.42  35 1.42
  35  0.772  0.200  0.001-  36 1.42  16 1.42  34 1.42
  36  0.839  0.334  0.001-  35 1.42  11 1.42  37 1.42
  37  0.772  0.400  0.001-  28 1.42  38 1.42  36 1.42
  38  0.839  0.534  0.001-  17 1.42  37 1.42  39 1.42
  39  0.772  0.600  0.001-  40 1.42  38 1.42  32 1.42
  40  0.839  0.734  0.001-  39 1.42  49 1.42  41 1.42
  41  0.972  0.800  0.001-  18 1.42  42 1.42  40 1.42
  42  0.039  0.934  0.001-   3 1.42  41 1.42   1 1.42
  43  0.172  0.800  0.001-  18 1.42  44 1.42  26 1.42
  44  0.239  0.934  0.001-   9 1.42  43 1.42   3 1.42
  45  0.372  0.800  0.001-  26 1.42  46 1.42  30 1.42
  46  0.439  0.934  0.001-  15 1.42  45 1.42   9 1.42
  47  0.572  0.800  0.001-  30 1.42  48 1.42  20 1.42
  48  0.639  0.934  0.001-  47 1.42  33 1.42  15 1.42
  49  0.772  0.800  0.001-  50 1.42  20 1.42  40 1.42
  50  0.839  0.934  0.001-  49 1.42   1 1.42  33 1.42
  51  0.373  0.251  0.210-  52 1.18  53 1.18
  52  0.421  0.189  0.213-  51 1.18
  53  0.325  0.313  0.207-  51 1.18
 
  LATTYP: Found a hexagonal cell.
 ALAT       =    12.3250000000
 C/A-ratio  =     1.6227180527
  
  Lattice vectors:
  
 A1 = (  12.3250000000,   0.0000000000,   0.0000000000)
 A2 = (  -6.1625000000,  10.6737631016,   0.0000000000)
 A3 = (   0.0000000000,   0.0000000000,  20.0000000000)


Analysis of symmetry for initial positions (statically):
=====================================================================
 Subroutine PRICEL returns:
 Original cell was already a primitive cell.
 

 Routine SETGRP: Setting up the symmetry group for a 
 hexagonal supercell.


 Subroutine GETGRP returns: Found  1 space group operations
 (whereof  1 operations were pure point group operations)
 out of a pool of 24 trial point group operations.


The static configuration has the point symmetry C_1 .


Analysis of symmetry for dynamics (positions and initial velocities):
=====================================================================
 Subroutine PRICEL returns:
 Original cell was already a primitive cell.
 

 Routine SETGRP: Setting up the symmetry group for a 
 hexagonal supercell.


 Subroutine GETGRP returns: Found  1 space group operations
 (whereof  1 operations were pure point group operations)
 out of a pool of 24 trial point group operations.


The dynamic configuration has the point symmetry C_1 .


 Subroutine INISYM returns: Found  1 space group operations
 (whereof  1 operations are pure point group operations),
 and found     1 'primitive' translations


----------------------------------------------------------------------------------------

                                     Primitive cell                                     

  volume of cell :    2631.0826

  direct lattice vectors                    reciprocal lattice vectors
    12.325000000  0.000000000  0.000000000     0.081135903  0.046843835  0.000000000
    -6.162500000 10.673763102  0.000000000     0.000000000  0.093687670  0.000000000
     0.000000000  0.000000000 20.000000000     0.000000000  0.000000000  0.050000000

  length of vectors
    12.325000000 12.325000000 20.000000000     0.093687670  0.093687670  0.050000000

  position of ions in fractional coordinates (direct lattice)
     0.972450841  0.000320818  0.000708389
     0.039118382  0.133659505  0.000550216
     0.172443627  0.000295449  0.000624535
     0.239096278  0.133647917  0.000320585
     0.972452058  0.200322012  0.000606523
     0.039128360  0.333643771  0.000555187
     0.172451764  0.200354552  0.000273959
     0.239124359  0.333665720  0.000090325
     0.372465565  0.000324403  0.000567391
     0.439137473  0.133619939  0.000322923
     0.972449824  0.400309362  0.000684513
     0.039124981  0.533636789  0.000716763
     0.372416176  0.400329481  0.000000000
     0.439099602  0.533638981  0.000290518
     0.572443676  0.000312125  0.000699475
     0.639110207  0.133631751  0.000684093
     0.972452703  0.600305653  0.000800361
     0.039124495  0.733640359  0.000818141
     0.572433471  0.600306242  0.000503618
     0.639111888  0.733641879  0.000659881
     0.172454630  0.400318228  0.000361306
     0.239120185  0.533636548  0.000473136
     0.372459750  0.200295993  0.000111246
     0.439107096  0.333673419  0.000069702
     0.172452155  0.600311506  0.000655425
     0.239123371  0.733638574  0.000718912
     0.572431082  0.200289171  0.000516621
     0.639112773  0.333618630  0.000577970
     0.372439808  0.600308022  0.000453556
     0.439116090  0.733637858  0.000617737
     0.572469358  0.400320504  0.000424897
     0.639119408  0.533650873  0.000574513
     0.772445723  0.000315427  0.000745201
     0.839116277  0.133640203  0.000719132
     0.772440513  0.200307432  0.000726291
     0.839120241  0.333635728  0.000731834
     0.772446320  0.400298367  0.000728722
     0.839118980  0.533633964  0.000776376
     0.772456143  0.600308173  0.000744639
     0.839115033  0.733643180  0.000789390
     0.972455313  0.800305582  0.000815291
     0.039114714  0.933643289  0.000747563
     0.172457971  0.800312211  0.000779216
     0.239134551  0.933647193  0.000681063
     0.372451396  0.800316674  0.000689249
     0.439124489  0.933644769  0.000676788
     0.572441101  0.800310054  0.000668168
     0.639115067  0.933638985  0.000734556
     0.772445098  0.800313187  0.000752577
     0.839116614  0.933644338  0.000758538
     0.373021009  0.251226878  0.210224104
     0.420879805  0.189313152  0.213445197
     0.325156981  0.313167186  0.207251361

  ion indices of the primitive-cell ions
   primitive index   ion index
                 1           1
                 2           2
                 3           3
                 4           4
                 5           5
                 6           6
                 7           7
                 8           8
                 9           9
                10          10
                11          11
                12          12
                13          13
                14          14
                15          15
                16          16
                17          17
                18          18
                19          19
                20          20
                21          21
                22          22
                23          23
                24          24
                25          25
                26          26
                27          27
                28          28
                29          29
                30          30
                31          31
                32          32
                33          33
                34          34
                35          35
                36          36
                37          37
                38          38
                39          39
                40          40
                41          41
                42          42
                43          43
                44          44
                45          45
                46          46
                47          47
                48          48
                49          49
                50          50
                51          51
                52          52
                53          53

----------------------------------------------------------------------------------------

 
 
 KPOINTS: auto                                    

Automatic generation of k-mesh.
 Grid dimensions read from file:
 generate k-points for:    1    1    1

 Generating k-lattice:

  Cartesian coordinates                     Fractional coordinates (reciprocal lattice)
     0.081135903  0.046843835  0.000000000     1.000000000 -0.000000000  0.000000000
     0.000000000  0.093687670  0.000000000     0.000000000  1.000000000  0.000000000
     0.000000000  0.000000000  0.050000000     0.000000000  0.000000000  1.000000000

  Length of vectors
     0.093687670  0.093687670  0.050000000

  Shift w.r.t. Gamma in fractional coordinates (k-lattice)
     0.000000000  0.000000000  0.000000000

 
 Subroutine IBZKPT returns following result:
 ===========================================
 
 Found      1 irreducible k-points:
 
 Following reciprocal coordinates:
            Coordinates               Weight
  0.000000  0.000000  0.000000      1.000000
 
 Following cartesian coordinates:
            Coordinates               Weight
  0.000000  0.000000  0.000000      1.000000
 


--------------------------------------------------------------------------------------------------------




 Dimension of arrays:
   k-points           NKPTS =      1   k-points in BZ     NKDIM =      1   number of bands    NBANDS=    136
   number of dos      NEDOS =    301   number of ions     NIONS =     53
   non local maximal  LDIM  =      4   non local SUM 2l+1 LMDIM =      8
   total plane-waves  NPLWV = ******
   max r-space proj   IRMAX =      1   max aug-charges    IRDMAX=   9736
   dimension x,y,z NGX =   128 NGY =  128 NGZ =  210
   dimension x,y,z NGXF=   256 NGYF=  256 NGZF=  420
   support grid    NGXF=   256 NGYF=  256 NGZF=  420
   ions per type =              51   2
   NGX,Y,Z   is equivalent  to a cutoff of  17.27, 17.27, 17.46 a.u.
   NGXF,Y,Z  is equivalent  to a cutoff of  34.53, 34.53, 34.91 a.u.

 SYSTEM =  unknown system                          
 POSCAR =   C  O                                   

 Startparameter for this run:
   NWRITE =      2    write-flag & timer
   PREC   = accura    normal or accurate (medium, high low for compatibility)
   ISTART =      0    job   : 0-new  1-cont  2-samecut
   ICHARG =      2    charge: 1-file 2-atom 10-const
   ISPIN  =      1    spin polarized calculation?
   LNONCOLLINEAR =      F non collinear calculations
   LSORBIT =      F    spin-orbit coupling
   INIWAV =      1    electr: 0-lowe 1-rand  2-diag
   LASPH  =      T    aspherical Exc in radial PAW
 Electronic Relaxation 1
   ENCUT  = 1000.0 eV  73.50 Ry    8.57 a.u.  31.78 31.78 51.57*2*pi/ulx,y,z
   ENINI  = 1000.0     initial cutoff
   ENAUG  =  946.8 eV  augmentation charge cutoff
   NELM   =     60;   NELMIN=  2; NELMDL= -5     # of ELM steps 
   EDIFF  = 0.1E-06   stopping-criterion for ELM
   LREAL  =      F    real-space projection
   NLSPLINE    = F    spline interpolate recip. space projectors
   LCOMPAT=      F    compatible to vasp.4.4
   GGA_COMPAT  = T    GGA compatible to vasp.4.4-vasp.4.6
   LMAXPAW     = -100 max onsite density
   LMAXMIX     =    2 max onsite mixed and CHGCAR
   VOSKOWN=      0    Vosko Wilk Nusair interpolation
   ROPT   =    0.00000   0.00000
 Ionic relaxation
   EDIFFG = 0.1E-05   stopping-criterion for IOM
   NSW    =      0    number of steps for IOM
   NBLOCK =      1;   KBLOCK =      1    inner block; outer block 
   IBRION =     -1    ionic relax: 0-MD 1-quasi-New 2-CG
   NFREE  =      0    steps in history (QN), initial steepest desc. (CG)
   ISIF   =      0    stress and relaxation
   IWAVPR =     10    prediction:  0-non 1-charg 2-wave 3-comb
   ISYM   =      2    0-nonsym 1-usesym 2-fastsym
   LCORR  =      T    Harris-Foulkes like correction to forces

   POTIM  = 0.5000    time-step for ionic-motion
   TEIN   =    0.0    initial temperature
   TEBEG  =    0.0;   TEEND  =   0.0 temperature during run
   SMASS  =  -3.00    Nose mass-parameter (am)
   estimated Nose-frequenzy (Omega)   =  0.10E-29 period in steps = 0.13E+47 mass=  -0.347E-26a.u.
   SCALEE = 1.0000    scale energy and forces
   NPACO  =    256;   APACO  = 16.0  distance and # of slots for P.C.
   PSTRESS=    0.0 pullay stress

  Mass of Ions in am
   POMASS =  12.01 16.00
  Ionic Valenz
   ZVAL   =   4.00  6.00
  Atomic Wigner-Seitz radii
   RWIGS  =  -1.00 -1.00
  virtual crystal weights 
   VCA    =   1.00  1.00
   NELECT =     216.0000    total number of electrons
   NUPDOWN=      -1.0000    fix difference up-down

 DOS related values:
   EMIN   =  10.00;   EMAX   =-10.00  energy-range for DOS
   EFERMI =   0.00
   ISMEAR =     0;   SIGMA  =   0.01  broadening in eV -4-tet -1-fermi 0-gaus

 Electronic relaxation 2 (details)
   IALGO  =     58    algorithm
   LDIAG  =      T    sub-space diagonalisation (order eigenvalues)
   LSUBROT=      F    optimize rotation matrix (better conditioning)
   TURBO    =      0    0=normal 1=particle mesh
   IRESTART =      0    0=no restart 2=restart with 2 vectors
   NREBOOT  =      0    no. of reboots
   NMIN     =      0    reboot dimension
   EREF     =   0.00    reference energy to select bands
   IMIX   =      4    mixing-type and parameters
     AMIX     =   0.40;   BMIX     =  1.00
     AMIX_MAG =   1.60;   BMIX_MAG =  1.00
     AMIN     =   0.10
     WC   =   100.;   INIMIX=   1;  MIXPRE=   1;  MAXMIX= -45

 Intra band minimization:
   WEIMIN = 0.0000     energy-eigenvalue tresh-hold
   EBREAK =  0.18E-09  absolut break condition
   DEPER  =   0.30     relativ break condition  

   TIME   =   0.40     timestep for ELM

  volume/ion in A,a.u.               =      49.64       335.01
  Fermi-wavevector in a.u.,A,eV,Ry     =   0.711510  1.344560  6.887909  0.506247
  Thomas-Fermi vector in A             =   1.798641
 
 Write flags
   LWAVE        =      T    write WAVECAR
   LDOWNSAMPLE  =      F    k-point downsampling of WAVECAR
   LCHARG       =      T    write CHGCAR
   LVTOT        =      F    write LOCPOT, total local potential
   LVHAR        =      F    write LOCPOT, Hartree potential only
   LELF         =      F    write electronic localiz. function (ELF)
   LORBIT       =      0    0 simple, 1 ext, 2 COOP (PROOUT), +10 PAW based schemes


 Dipole corrections
   LMONO  =      F    monopole corrections only (constant potential shift)
   LDIPOL =      F    correct potential (dipole corrections)
   IDIPOL =      0    1-x, 2-y, 3-z, 4-all directions 
   EPSILON=  1.0000000 bulk dielectric constant

 Exchange correlation treatment:
   GGA     =    MK    GGA type
   LEXCH   =    43    internal setting for exchange type
   VOSKOWN=      0    Vosko Wilk Nusair interpolation
   LHFCALC =     F    Hartree Fock is set to
   LHFONE  =     F    Hartree Fock one center treatment
   AEXX    =    0.0000 exact exchange contribution

 vdW DFT:
   LUSE_VDW   =     T    switch on vdW DFT
   Zab_VDW    =-.8491    correlation parameter
   PARAM1     =0.1234
   PARAM2     =1.0000
   PARAM3     =0.0000
   -- rVV10 --
   BPARAM     = 6.3000
   CPARAM     = 0.0093

 Linear response parameters
   LEPSILON=     F    determine dielectric tensor
   LRPA    =     F    only Hartree local field effects (RPA)
   LNABLA  =     F    use nabla operator in PAW spheres
   LVEL    =     F    velocity operator in full k-point grid
   LINTERFAST=   F  fast interpolation
   KINTER  =     0    interpolate to denser k-point grid
   CSHIFT  =0.1000    complex shift for real part using Kramers Kronig
   OMEGAMAX=  -1.0    maximum frequency
   DEG_THRESHOLD= 0.2000000E-02 threshold for treating states as degnerate
   RTIME   =   -0.100 relaxation time in fs
  (WPLASMAI=    0.000 imaginary part of plasma frequency in eV, 0.658/RTIME)
   DFIELD  = 0.0000000 0.0000000 0.0000000 field for delta impulse in time
 
 Orbital magnetization related:
   ORBITALMAG=     F  switch on orbital magnetization
   LCHIMAG   =     F  perturbation theory with respect to B field
   DQ        =  0.001000  dq finite difference perturbation B field
   LLRAUG    =     F  two centre corrections for induced B field



--------------------------------------------------------------------------------------------------------


 Static calculation
 charge density and potential will be updated during run
 non-spin polarized calculation
 Conjugate gradient for all bands (Freysoldt, et al. PRB 79, 241103 (2009))
 preconditioned conjugated gradient                                        
 perform sub-space diagonalisation
    before iterative eigenvector-optimisation
 modified Broyden-mixing scheme, WC =      100.0
 initial mixing is a Kerker type mixing with AMIX =  0.4000 and BMIX =      1.0000
 Hartree-type preconditioning will be used
 using additional bands           28
 reciprocal scheme for non local part
 use partial core corrections
 no Harris-corrections to forces 
 use gradient corrections 
 use of overlap-Matrix (Vanderbilt PP)
 Gauss-broadening in eV      SIGMA  =   0.01


--------------------------------------------------------------------------------------------------------


  energy-cutoff  :     1000.00
  volume of cell :     2631.08
      direct lattice vectors                 reciprocal lattice vectors
    12.325000000  0.000000000  0.000000000     0.081135903  0.046843835  0.000000000
    -6.162500000 10.673763102  0.000000000     0.000000000  0.093687670  0.000000000
     0.000000000  0.000000000 20.000000000     0.000000000  0.000000000  0.050000000

  length of vectors
    12.325000000 12.325000000 20.000000000     0.093687670  0.093687670  0.050000000


 
 k-points in units of 2pi/SCALE and weight: auto                                    
   0.00000000  0.00000000  0.00000000       1.000
 
 k-points in reciprocal lattice and weights: auto                                    
   0.00000000  0.00000000  0.00000000       1.000
 
 position of ions in fractional coordinates (direct lattice) 
   0.97245084  0.00032082  0.00070839
   0.03911838  0.13365950  0.00055022
   0.17244363  0.00029545  0.00062454
   0.23909628  0.13364792  0.00032058
   0.97245206  0.20032201  0.00060652
   0.03912836  0.33364377  0.00055519
   0.17245176  0.20035455  0.00027396
   0.23912436  0.33366572  0.00009033
   0.37246557  0.00032440  0.00056739
   0.43913747  0.13361994  0.00032292
   0.97244982  0.40030936  0.00068451
   0.03912498  0.53363679  0.00071676
   0.37241618  0.40032948  0.00000000
   0.43909960  0.53363898  0.00029052
   0.57244368  0.00031213  0.00069947
   0.63911021  0.13363175  0.00068409
   0.97245270  0.60030565  0.00080036
   0.03912449  0.73364036  0.00081814
   0.57243347  0.60030624  0.00050362
   0.63911189  0.73364188  0.00065988
   0.17245463  0.40031823  0.00036131
   0.23912018  0.53363655  0.00047314
   0.37245975  0.20029599  0.00011125
   0.43910710  0.33367342  0.00006970
   0.17245216  0.60031151  0.00065542
   0.23912337  0.73363857  0.00071891
   0.57243108  0.20028917  0.00051662
   0.63911277  0.33361863  0.00057797
   0.37243981  0.60030802  0.00045356
   0.43911609  0.73363786  0.00061774
   0.57246936  0.40032050  0.00042490
   0.63911941  0.53365087  0.00057451
   0.77244572  0.00031543  0.00074520
   0.83911628  0.13364020  0.00071913
   0.77244051  0.20030743  0.00072629
   0.83912024  0.33363573  0.00073183
   0.77244632  0.40029837  0.00072872
   0.83911898  0.53363396  0.00077638
   0.77245614  0.60030817  0.00074464
   0.83911503  0.73364318  0.00078939
   0.97245531  0.80030558  0.00081529
   0.03911471  0.93364329  0.00074756
   0.17245797  0.80031221  0.00077922
   0.23913455  0.93364719  0.00068106
   0.37245140  0.80031667  0.00068925
   0.43912449  0.93364477  0.00067679
   0.57244110  0.80031005  0.00066817
   0.63911507  0.93363899  0.00073456
   0.77244510  0.80031319  0.00075258
   0.83911661  0.93364434  0.00075854
   0.37302101  0.25122688  0.21022410
   0.42087980  0.18931315  0.21344520
   0.32515698  0.31316719  0.20725136
 
 position of ions in cartesian coordinates  (Angst):
  11.98347958  0.00342433  0.01416777
  -0.34154264  1.42664989  0.01100432
   2.12354700  0.00315355  0.01249070
   2.12325634  1.42652621  0.00641170
  10.75098721  2.13818970  0.01213047
  -1.57382270  3.56123457  0.01110375
   0.89078307  2.13853702  0.00547917
   0.89099273  3.56146885  0.00180651
   4.58863896  0.00346260  0.01134782
   4.58893648  1.42622757  0.00645846
   9.51853763  4.27280730  0.01369027
  -2.80632132  5.69591267  0.01433526
   2.12299894  4.27302204  0.00000000
   2.12335237  5.69593607  0.00581036
   7.05344483  0.00333155  0.01398950
   7.05352764  1.42635365  0.01368187
   8.28609598  6.40752033  0.01600723
  -4.03884931  7.83070339  0.01636283
   3.35585531  6.40752662  0.01007237
   3.35598594  7.83071962  0.01319763
  -0.34145776  4.27290193  0.00722612
  -0.34137895  5.69591010  0.00946273
   3.35624236  2.13791198  0.00222492
   3.35573251  3.56155103  0.00139405
  -1.57394684  6.40758280  0.01310850
  -1.57385216  7.83068434  0.01437823
   5.82093107  2.13783916  0.01033241
   5.82114012  3.56096622  0.01155939
   0.89092245  6.40754561  0.00907111
   0.89106251  7.83067670  0.01235474
   4.58870974  4.27292622  0.00849795
   4.58852320  5.69606300  0.01149026
   9.51844972  0.00336679  0.01490402
   9.51855036  1.42644387  0.01438264
   8.28593477  2.13803408  0.01452582
   8.28612680  3.56114872  0.01463668
   7.05356221  4.27268994  0.01457444
   7.05362213  5.69588251  0.01552751
   5.82112285  6.40754723  0.01489279
   5.82101669  7.83073350  0.01578780
   7.05362858  8.54227219  0.01630582
  -5.27148792  9.96548729  0.01495127
  -2.80637951  8.54234295  0.01558431
  -2.80626749  9.96552896  0.01362126
  -0.34148805  8.54239058  0.01378498
  -0.34137657  9.96550309  0.01353576
   2.12342586  8.54231992  0.01336337
   2.12354296  9.96544135  0.01469111
   4.58845581  8.54235337  0.01505154
   4.58852904  9.96549848  0.01517076
   3.04929830  2.68153618  4.20448208
   4.02070129  2.02068374  4.26890394
   2.07766701  3.34267235  4.14502721
 


--------------------------------------------------------------------------------------------------------


 k-point   1 :   0.0000 0.0000 0.0000  plane waves:  189031

 maximum and minimum number of plane-waves per node :      6755     6748

 maximum number of plane-waves:    189031
 maximum index in each direction: 
   IXMAX=   31   IYMAX=   31   IZMAX=   51
   IXMIN=  -31   IYMIN=  -31   IZMIN=  -51


 parallel 3D FFT for wavefunctions:
    minimum data exchange during FFTs selected (reduces bandwidth)
 parallel 3D FFT for charge:
    minimum data exchange during FFTs selected (reduces bandwidth)


 total amount of memory used by VASP MPI-rank0    85439. kBytes
=======================================================================

   base      :      30000. kBytes
   nonl-proj :       6586. kBytes
   fftplans  :      14299. kBytes
   grid      :      23511. kBytes
   one-center:          6. kBytes
   wavefun   :      11037. kBytes
 
     INWAV:  cpu time    0.0000: real time    0.0000
 Broyden mixing: mesh for mixing (old mesh)
   NGX = 63   NGY = 63   NGZ =103
  (NGX  =256   NGY  =256   NGZ  =420)
  gives a total of 408807 points

 initial charge density was supplied:
 charge density of overlapping atoms calculated
 number of electron     216.0000000 magnetization 
 keeping initial charge density in first step


--------------------------------------------------------------------------------------------------------


 Maximum index for augmentation-charges          459 (set IRDMAX)


--------------------------------------------------------------------------------------------------------


 First call to EWALD:  gamma=   0.128
 Maximum number of real-space cells 3x 3x 2
 Maximum number of reciprocal cells 3x 3x 4

    FEWALD:  cpu time    0.0024: real time    0.0025


--------------------------------------- Iteration      1(   1)  ---------------------------------------


vdW kernel read from vdw_kernel.bindat
  0.0000  0.2424  0.5071  0.7962  1.1119  1.4567  1.8333  2.2446  2.6937  3.1842
  3.7199  4.3049  4.9438  5.6415  6.4036  7.2358  8.1446  9.1372 10.2212 11.4050
 12.6979 14.1099 15.6519 17.3360 19.1751 21.1837 23.3773 25.7729 28.3892 31.2465
 34.3669 37.7748 41.4965 45.5611 50.0000
 
    POTLOK:  cpu time    3.3930: real time    3.4414
    SETDIJ:  cpu time    0.0547: real time    0.0549
    TRIAL :  cpu time    1.5112: real time    1.5278
    CORREC:  cpu time    0.0005: real time    0.0007
    --------------------------------------------
      LOOP:  cpu time    4.9628: real time    5.0575

 eigenvalue-minimisations  :   272
 total energy-change (2. order) : 0.2767202E+04  (-0.1099374E+05)
 number of electron     216.0000000 magnetization 
 augmentation part      216.0000000 magnetization 

 Free energy of the ion-electron system (eV)
  ---------------------------------------------------
  alpha Z        PSCENC =        59.93625244
  Ewald energy   TEWEN  =     32916.94435984
  -Hartree energ DENC   =    -39092.34147548
  -exchange      EXHF   =         0.00000000
  -V(xc)+E(xc)   XCENC  =       414.10371015
  PAW double counting   =      6552.85433684    -6257.21772958
  entropy T*S    EENTRO =        -0.00000000
  eigenvalues    EBANDS =      -242.11331883
  atomic energy  EATOM  =      8415.03548706
  ---------------------------------------------------
  free energy    TOTEN  =      2767.20162244 eV

  energy without entropy =     2767.20162244  energy(sigma->0) =     2767.20162244


--------------------------------------------------------------------------------------------------------




--------------------------------------- Iteration      1(   2)  ---------------------------------------


    TRIAL :  cpu time    2.0646: real time    2.0831
    CORREC:  cpu time    0.0001: real time    0.0001
    --------------------------------------------
      LOOP:  cpu time    2.0771: real time    2.1114

 eigenvalue-minimisations  :   424
 total energy-change (2. order) :-0.2400636E+04  (-0.2236287E+04)
 number of electron     216.0000000 magnetization 
 augmentation part      216.0000000 magnetization 

 Free energy of the ion-electron system (eV)
  ---------------------------------------------------
  alpha Z        PSCENC =        59.93625244
  Ewald energy   TEWEN  =     32916.94435984
  -Hartree energ DENC   =    -39092.34147548
  -exchange      EXHF   =         0.00000000
  -V(xc)+E(xc)   XCENC  =       414.10371015
  PAW double counting   =      6552.85433684    -6257.21772958
  entropy T*S    EENTRO =        -0.00000000
  eigenvalues    EBANDS =     -2642.74882679
  atomic energy  EATOM  =      8415.03548706
  ---------------------------------------------------
  free energy    TOTEN  =       366.56611448 eV

  energy without entropy =      366.56611448  energy(sigma->0) =      366.56611448


--------------------------------------------------------------------------------------------------------




--------------------------------------- Iteration      1(   3)  ---------------------------------------


    TRIAL :  cpu time    1.7855: real time    1.8014
    CORREC:  cpu time    0.0001: real time    0.0001
    --------------------------------------------
      LOOP:  cpu time    1.8233: real time    1.8671

 eigenvalue-minimisations  :   352
 total energy-change (2. order) :-0.7586621E+03  (-0.7534069E+03)
 number of electron     216.0000000 magnetization 
 augmentation part      216.0000000 magnetization 

 Free energy of the ion-electron system (eV)
  ---------------------------------------------------
  alpha Z        PSCENC =        59.93625244
  Ewald energy   TEWEN  =     32916.94435984
  -Hartree energ DENC   =    -39092.34147548
  -exchange      EXHF   =         0.00000000
  -V(xc)+E(xc)   XCENC  =       414.10371015
  PAW double counting   =      6552.85433684    -6257.21772958
  entropy T*S    EENTRO =        -0.00000000
  eigenvalues    EBANDS =     -3401.41093516
  atomic energy  EATOM  =      8415.03548706
  ---------------------------------------------------
  free energy    TOTEN  =      -392.09599389 eV

  energy without entropy =     -392.09599389  energy(sigma->0) =     -392.09599389


--------------------------------------------------------------------------------------------------------




--------------------------------------- Iteration      1(   4)  ---------------------------------------


    TRIAL :  cpu time    1.7854: real time    1.8019
    CORREC:  cpu time    0.0001: real time    0.0001
    --------------------------------------------
      LOOP:  cpu time    1.8100: real time    1.8624

 eigenvalue-minimisations  :   352
 total energy-change (2. order) :-0.5634882E+02  (-0.5579829E+02)
 number of electron     216.0000000 magnetization 
 augmentation part      216.0000000 magnetization 

 Free energy of the ion-electron system (eV)
  ---------------------------------------------------
  alpha Z        PSCENC =        59.93625244
  Ewald energy   TEWEN  =     32916.94435984
  -Hartree energ DENC   =    -39092.34147548
  -exchange      EXHF   =         0.00000000
  -V(xc)+E(xc)   XCENC  =       414.10371015
  PAW double counting   =      6552.85433684    -6257.21772958
  entropy T*S    EENTRO =        -0.00000000
  eigenvalues    EBANDS =     -3457.75975025
  atomic energy  EATOM  =      8415.03548706
  ---------------------------------------------------
  free energy    TOTEN  =      -448.44480898 eV

  energy without entropy =     -448.44480898  energy(sigma->0) =     -448.44480898


--------------------------------------------------------------------------------------------------------




--------------------------------------- Iteration      1(   5)  ---------------------------------------


    TRIAL :  cpu time    1.7852: real time    1.8007
    CORREC:  cpu time    0.0001: real time    0.0001
    CHARGE:  cpu time    0.1174: real time    0.1190
    --------------------------------------------
      LOOP:  cpu time    1.9729: real time    1.9929

 eigenvalue-minimisations  :   352
 total energy-change (2. order) :-0.1593111E+01  (-0.1587232E+01)
 number of electron     216.0000000 magnetization 
 augmentation part       -0.2491828 magnetization 

 Free energy of the ion-electron system (eV)
  ---------------------------------------------------
  alpha Z        PSCENC =        59.93625244
  Ewald energy   TEWEN  =     32916.94435984
  -Hartree energ DENC   =    -39092.34147548
  -exchange      EXHF   =         0.00000000
  -V(xc)+E(xc)   XCENC  =       414.10371015
  PAW double counting   =      6552.85433684    -6257.21772958
  entropy T*S    EENTRO =        -0.00000000
  eigenvalues    EBANDS =     -3459.35286116
  atomic energy  EATOM  =      8415.03548706
  ---------------------------------------------------
  free energy    TOTEN  =      -450.03791989 eV

  energy without entropy =     -450.03791989  energy(sigma->0) =     -450.03791989


--------------------------------------------------------------------------------------------------------




--------------------------------------- Iteration      1(   6)  ---------------------------------------


    POTLOK:  cpu time    3.0477: real time    3.0776
    SETDIJ:  cpu time    0.0536: real time    0.0538
    TRIAL :  cpu time    0.8586: real time    0.8671
    CORREC:  cpu time    3.4151: real time    3.4521
    CHARGE:  cpu time    0.1129: real time    0.1155
    --------------------------------------------
      LOOP:  cpu time    7.5198: real time    7.6026

 eigenvalue-minimisations  :     0
 total energy-change (2. order) : 0.5104577E+02  (-0.1593723E+02)
 number of electron     216.0000000 magnetization 
 augmentation part       -0.3449598 magnetization 

 Free energy of the ion-electron system (eV)
  ---------------------------------------------------
  alpha Z        PSCENC =        59.93625244
  Ewald energy   TEWEN  =     32916.94435984
  -Hartree energ DENC   =    -40495.87067094
  -exchange      EXHF   =         0.00000000
  -V(xc)+E(xc)   XCENC  =       461.63100728
  PAW double counting   =     86018.80627945   -85728.16090966
  entropy T*S    EENTRO =        -0.00000000
  eigenvalues    EBANDS =     -2047.31395235
  atomic energy  EATOM  =      8415.03548706
  ---------------------------------------------------
  free energy    TOTEN  =      -398.99214687 eV

  energy without entropy =     -398.99214687  energy(sigma->0) =     -398.99214687


--------------------------------------------------------------------------------------------------------




--------------------------------------- Iteration      1(   7)  ---------------------------------------


    POTLOK:  cpu time    3.0732: real time    3.0960
    SETDIJ:  cpu time    0.0627: real time    0.0629
    TRIAL :  cpu time    0.8595: real time    0.8672
    CORREC:  cpu time    3.4170: real time    3.4433
    CHARGE:  cpu time    0.1145: real time    0.1157
    --------------------------------------------
      LOOP:  cpu time    7.5882: real time    7.6471

 eigenvalue-minimisations  :     0
 total energy-change (2. order) :-0.1598344E+02  (-0.1795909E+01)
 number of electron     216.0000000 magnetization 
 augmentation part       -0.3897484 magnetization 

 Free energy of the ion-electron system (eV)
  ---------------------------------------------------
  alpha Z        PSCENC =        59.93625244
  Ewald energy   TEWEN  =     32916.94435984
  -Hartree energ DENC   =    -39986.99953171
  -exchange      EXHF   =         0.00000000
  -V(xc)+E(xc)   XCENC  =       444.49144569
  PAW double counting   =    101053.01092664  -100759.95037980
  entropy T*S    EENTRO =        -0.00000000
  eigenvalues    EBANDS =     -2557.44415201
  atomic energy  EATOM  =      8415.03548706
  ---------------------------------------------------
  free energy    TOTEN  =      -414.97559185 eV

  energy without entropy =     -414.97559185  energy(sigma->0) =     -414.97559185


--------------------------------------------------------------------------------------------------------




--------------------------------------- Iteration      1(   8)  ---------------------------------------


    POTLOK:  cpu time    3.0691: real time    3.0994
    SETDIJ:  cpu time    0.0637: real time    0.0639
    TRIAL :  cpu time    0.8558: real time    0.8642
    CORREC:  cpu time    3.4162: real time    3.4442
    CHARGE:  cpu time    0.1150: real time    0.1163
    --------------------------------------------
      LOOP:  cpu time    7.5903: real time    7.6709

 eigenvalue-minimisations  :     0
 total energy-change (2. order) :-0.1794940E+01  (-0.4673862E+00)
 number of electron     216.0000000 magnetization 
 augmentation part       -0.4066286 magnetization 

 Free energy of the ion-electron system (eV)
  ---------------------------------------------------
  alpha Z        PSCENC =        59.93625244
  Ewald energy   TEWEN  =     32916.94435984
  -Hartree energ DENC   =    -39961.38755670
  -exchange      EXHF   =         0.00000000
  -V(xc)+E(xc)   XCENC  =       444.00462670
  PAW double counting   =    104895.61489470  -104602.28545226
  entropy T*S    EENTRO =        -0.00000000
  eigenvalues    EBANDS =     -2584.63314320
  atomic energy  EATOM  =      8415.03548706
  ---------------------------------------------------
  free energy    TOTEN  =      -416.77053142 eV

  energy without entropy =     -416.77053142  energy(sigma->0) =     -416.77053142


--------------------------------------------------------------------------------------------------------




--------------------------------------- Iteration      1(   9)  ---------------------------------------


    POTLOK:  cpu time    3.0747: real time    3.0983
    SETDIJ:  cpu time    0.0626: real time    0.0628
    TRIAL :  cpu time    0.8563: real time    0.8650
    CORREC:  cpu time    3.4098: real time    3.4512
    CHARGE:  cpu time    0.1158: real time    0.1172
    --------------------------------------------
      LOOP:  cpu time    7.5718: real time    7.6493

 eigenvalue-minimisations  :     0
 total energy-change (2. order) :-0.4671917E+00  (-0.1603628E+00)
 number of electron     216.0000000 magnetization 
 augmentation part       -0.4143777 magnetization 

 Free energy of the ion-electron system (eV)
  ---------------------------------------------------
  alpha Z        PSCENC =        59.93625244
  Ewald energy   TEWEN  =     32916.94435984
  -Hartree energ DENC   =    -39976.78863089
  -exchange      EXHF   =         0.00000000
  -V(xc)+E(xc)   XCENC  =       444.19518923
  PAW double counting   =    107408.30026518  -107114.85617744
  entropy T*S    EENTRO =        -0.00000000
  eigenvalues    EBANDS =     -2570.00446855
  atomic energy  EATOM  =      8415.03548706
  ---------------------------------------------------
  free energy    TOTEN  =      -417.23772312 eV

  energy without entropy =     -417.23772312  energy(sigma->0) =     -417.23772312


--------------------------------------------------------------------------------------------------------




--------------------------------------- Iteration      1(  10)  ---------------------------------------


    POTLOK:  cpu time    3.0653: real time    3.0913
    SETDIJ:  cpu time    0.0630: real time    0.0632
    TRIAL :  cpu time    0.8558: real time    0.8643
    CORREC:  cpu time    3.4395: real time    3.4684
    CHARGE:  cpu time    0.1163: real time    0.1176
    --------------------------------------------
      LOOP:  cpu time    7.5699: real time    7.6464

 eigenvalue-minimisations  :     0
 total energy-change (2. order) :-0.1600157E+00  (-0.7112189E-01)
 number of electron     216.0000000 magnetization 
 augmentation part       -0.4148451 magnetization 

 Free energy of the ion-electron system (eV)
  ---------------------------------------------------
  alpha Z        PSCENC =        59.93625244
  Ewald energy   TEWEN  =     32916.94435984
  -Hartree energ DENC   =    -39976.18648890
  -exchange      EXHF   =         0.00000000
  -V(xc)+E(xc)   XCENC  =       444.08279487
  PAW double counting   =    107873.25593522  -107579.73833739
  entropy T*S    EENTRO =        -0.00000000
  eigenvalues    EBANDS =     -2570.72774199
  atomic energy  EATOM  =      8415.03548706
  ---------------------------------------------------
  free energy    TOTEN  =      -417.39773884 eV

  energy without entropy =     -417.39773884  energy(sigma->0) =     -417.39773884


--------------------------------------------------------------------------------------------------------




--------------------------------------- Iteration      1(  11)  ---------------------------------------


    POTLOK:  cpu time    3.0784: real time    3.1029
    SETDIJ:  cpu time    0.0631: real time    0.0633
    TRIAL :  cpu time    0.8551: real time    0.8637
    CORREC:  cpu time    3.4352: real time    3.4632
    CHARGE:  cpu time    0.1143: real time    0.1155
    --------------------------------------------
      LOOP:  cpu time    7.6122: real time    7.6768

 eigenvalue-minimisations  :     0
 total energy-change (2. order) :-0.7087724E-01  (-0.2997247E-01)
 number of electron     216.0000000 magnetization 
 augmentation part       -0.4146213 magnetization 

 Free energy of the ion-electron system (eV)
  ---------------------------------------------------
  alpha Z        PSCENC =        59.93625244
  Ewald energy   TEWEN  =     32916.94435984
  -Hartree energ DENC   =    -39971.23225238
  -exchange      EXHF   =         0.00000000
  -V(xc)+E(xc)   XCENC  =       444.01103295
  PAW double counting   =    107467.47311980  -107173.95857928
  entropy T*S    EENTRO =        -0.00000000
  eigenvalues    EBANDS =     -2575.67803651
  atomic energy  EATOM  =      8415.03548706
  ---------------------------------------------------
  free energy    TOTEN  =      -417.46861608 eV

  energy without entropy =     -417.46861608  energy(sigma->0) =     -417.46861608


--------------------------------------------------------------------------------------------------------




--------------------------------------- Iteration      1(  12)  ---------------------------------------


    POTLOK:  cpu time    3.0678: real time    3.0921
    SETDIJ:  cpu time    0.0636: real time    0.0638
    TRIAL :  cpu time    0.8555: real time    0.8640
    CORREC:  cpu time    3.4176: real time    3.4463
    CHARGE:  cpu time    0.1148: real time    0.1160
    --------------------------------------------
      LOOP:  cpu time    7.5974: real time    7.7045

 eigenvalue-minimisations  :     0
 total energy-change (2. order) :-0.2986227E-01  (-0.1014735E-01)
 number of electron     216.0000000 magnetization 
 augmentation part       -0.4146497 magnetization 

 Free energy of the ion-electron system (eV)
  ---------------------------------------------------
  alpha Z        PSCENC =        59.93625244
  Ewald energy   TEWEN  =     32916.94435984
  -Hartree energ DENC   =    -39969.06127080
  -exchange      EXHF   =         0.00000000
  -V(xc)+E(xc)   XCENC  =       443.95792213
  PAW double counting   =    107157.60071888  -106864.10248041
  entropy T*S    EENTRO =        -0.00000000
  eigenvalues    EBANDS =     -2577.80946750
  atomic energy  EATOM  =      8415.03548706
  ---------------------------------------------------
  free energy    TOTEN  =      -417.49847835 eV

  energy without entropy =     -417.49847835  energy(sigma->0) =     -417.49847835


--------------------------------------------------------------------------------------------------------




--------------------------------------- Iteration      1(  13)  ---------------------------------------


    POTLOK:  cpu time    3.0753: real time    3.0997
    SETDIJ:  cpu time    0.0643: real time    0.0645
    TRIAL :  cpu time    0.8567: real time    0.8654
    CORREC:  cpu time    3.4174: real time    3.4458
    CHARGE:  cpu time    0.1153: real time    0.1164
    --------------------------------------------
      LOOP:  cpu time    7.5797: real time    7.6448

 eigenvalue-minimisations  :     0
 total energy-change (2. order) :-0.1013949E-01  (-0.3064608E-02)
 number of electron     216.0000000 magnetization 
 augmentation part       -0.4141074 magnetization 

 Free energy of the ion-electron system (eV)
  ---------------------------------------------------
  alpha Z        PSCENC =        59.93625244
  Ewald energy   TEWEN  =     32916.94435984
  -Hartree energ DENC   =    -39969.14438719
  -exchange      EXHF   =         0.00000000
  -V(xc)+E(xc)   XCENC  =       443.95431313
  PAW double counting   =    107053.85089100  -106760.36172230
  entropy T*S    EENTRO =        -0.00000000
  eigenvalues    EBANDS =     -2577.72381183
  atomic energy  EATOM  =      8415.03548706
  ---------------------------------------------------
  free energy    TOTEN  =      -417.50861783 eV

  energy without entropy =     -417.50861783  energy(sigma->0) =     -417.50861783


--------------------------------------------------------------------------------------------------------




--------------------------------------- Iteration      1(  14)  ---------------------------------------


    POTLOK:  cpu time    3.0698: real time    3.0961
    SETDIJ:  cpu time    0.0641: real time    0.0644
    TRIAL :  cpu time    0.8539: real time    0.8630
    CORREC:  cpu time    3.4424: real time    3.4780
    CHARGE:  cpu time    0.1151: real time    0.1164
    --------------------------------------------
      LOOP:  cpu time    7.6355: real time    7.7137

 eigenvalue-minimisations  :     0
 total energy-change (2. order) :-0.3068373E-02  (-0.1102108E-02)
 number of electron     216.0000000 magnetization 
 augmentation part       -0.4138476 magnetization 

 Free energy of the ion-electron system (eV)
  ---------------------------------------------------
  alpha Z        PSCENC =        59.93625244
  Ewald energy   TEWEN  =     32916.94435984
  -Hartree energ DENC   =    -39969.05692515
  -exchange      EXHF   =         0.00000000
  -V(xc)+E(xc)   XCENC  =       443.95116467
  PAW double counting   =    107068.42951913  -106774.94364556
  entropy T*S    EENTRO =        -0.00000000
  eigenvalues    EBANDS =     -2577.80789864
  atomic energy  EATOM  =      8415.03548706
  ---------------------------------------------------
  free energy    TOTEN  =      -417.51168621 eV

  energy without entropy =     -417.51168621  energy(sigma->0) =     -417.51168621


--------------------------------------------------------------------------------------------------------




--------------------------------------- Iteration      1(  15)  ---------------------------------------


    POTLOK:  cpu time    3.0788: real time    3.1026
    SETDIJ:  cpu time    0.0632: real time    0.0634
    TRIAL :  cpu time    0.8547: real time    0.8630
    CORREC:  cpu time    3.4276: real time    3.4561
    CHARGE:  cpu time    0.1150: real time    0.1162
    --------------------------------------------
      LOOP:  cpu time    7.6229: real time    7.6870

 eigenvalue-minimisations  :     0
 total energy-change (2. order) :-0.1105607E-02  (-0.5677150E-03)
 number of electron     216.0000000 magnetization 
 augmentation part       -0.4133844 magnetization 

 Free energy of the ion-electron system (eV)
  ---------------------------------------------------
  alpha Z        PSCENC =        59.93625244
  Ewald energy   TEWEN  =     32916.94435984
  -Hartree energ DENC   =    -39968.66391338
  -exchange      EXHF   =         0.00000000
  -V(xc)+E(xc)   XCENC  =       443.93156037
  PAW double counting   =    107071.72638031  -106778.23856802
  entropy T*S    EENTRO =        -0.00000000
  eigenvalues    EBANDS =     -2578.18435044
  atomic energy  EATOM  =      8415.03548706
  ---------------------------------------------------
  free energy    TOTEN  =      -417.51279181 eV

  energy without entropy =     -417.51279181  energy(sigma->0) =     -417.51279181


--------------------------------------------------------------------------------------------------------




--------------------------------------- Iteration      1(  16)  ---------------------------------------


    POTLOK:  cpu time    3.0578: real time    3.0812
    SETDIJ:  cpu time    0.0634: real time    0.0636
    TRIAL :  cpu time    0.8566: real time    0.8644
    CORREC:  cpu time    3.4110: real time    3.4441
    CHARGE:  cpu time    0.1137: real time    0.1160
    --------------------------------------------
      LOOP:  cpu time    7.5569: real time    7.6436

 eigenvalue-minimisations  :     0
 total energy-change (2. order) :-0.5699129E-03  (-0.2895361E-03)
 number of electron     216.0000000 magnetization 
 augmentation part       -0.4132661 magnetization 

 Free energy of the ion-electron system (eV)
  ---------------------------------------------------
  alpha Z        PSCENC =        59.93625244
  Ewald energy   TEWEN  =     32916.94435984
  -Hartree energ DENC   =    -39969.07286876
  -exchange      EXHF   =         0.00000000
  -V(xc)+E(xc)   XCENC  =       443.94639021
  PAW double counting   =    107021.05795661  -106727.57217962
  entropy T*S    EENTRO =        -0.00000000
  eigenvalues    EBANDS =     -2577.78875953
  atomic energy  EATOM  =      8415.03548706
  ---------------------------------------------------
  free energy    TOTEN  =      -417.51336173 eV

  energy without entropy =     -417.51336173  energy(sigma->0) =     -417.51336173


--------------------------------------------------------------------------------------------------------




--------------------------------------- Iteration      1(  17)  ---------------------------------------


    POTLOK:  cpu time    3.0663: real time    3.0903
    SETDIJ:  cpu time    0.0642: real time    0.0644
    TRIAL :  cpu time    0.8547: real time    0.8626
    CORREC:  cpu time    3.4115: real time    3.4561
    CHARGE:  cpu time    0.1156: real time    0.1167
    --------------------------------------------
      LOOP:  cpu time    7.5922: real time    7.6736

 eigenvalue-minimisations  :     0
 total energy-change (2. order) :-0.2902842E-03  (-0.1280334E-03)
 number of electron     216.0000000 magnetization 
 augmentation part       -0.4133272 magnetization 

 Free energy of the ion-electron system (eV)
  ---------------------------------------------------
  alpha Z        PSCENC =        59.93625244
  Ewald energy   TEWEN  =     32916.94435984
  -Hartree energ DENC   =    -39969.15319486
  -exchange      EXHF   =         0.00000000
  -V(xc)+E(xc)   XCENC  =       443.94655924
  PAW double counting   =    106973.69848375  -106680.21181827
  entropy T*S    EENTRO =        -0.00000000
  eigenvalues    EBANDS =     -2577.70978122
  atomic energy  EATOM  =      8415.03548706
  ---------------------------------------------------
  free energy    TOTEN  =      -417.51365201 eV

  energy without entropy =     -417.51365201  energy(sigma->0) =     -417.51365201


--------------------------------------------------------------------------------------------------------




--------------------------------------- Iteration      1(  18)  ---------------------------------------


    POTLOK:  cpu time    3.0556: real time    3.0833
    SETDIJ:  cpu time    0.0640: real time    0.0643
    TRIAL :  cpu time    0.8734: real time    0.8824
    CORREC:  cpu time    3.4114: real time    3.4412
    CHARGE:  cpu time    0.1148: real time    0.1161
    --------------------------------------------
      LOOP:  cpu time    7.5679: real time    7.6499

 eigenvalue-minimisations  :     0
 total energy-change (2. order) :-0.1276710E-03  (-0.4905008E-04)
 number of electron     216.0000000 magnetization 
 augmentation part       -0.4134995 magnetization 

 Free energy of the ion-electron system (eV)
  ---------------------------------------------------
  alpha Z        PSCENC =        59.93625244
  Ewald energy   TEWEN  =     32916.94435984
  -Hartree energ DENC   =    -39969.19536321
  -exchange      EXHF   =         0.00000000
  -V(xc)+E(xc)   XCENC  =       443.94915205
  PAW double counting   =    106965.90028853  -106672.41320864
  entropy T*S    EENTRO =        -0.00000000
  eigenvalues    EBANDS =     -2577.67074775
  atomic energy  EATOM  =      8415.03548706
  ---------------------------------------------------
  free energy    TOTEN  =      -417.51377968 eV

  energy without entropy =     -417.51377968  energy(sigma->0) =     -417.51377968


--------------------------------------------------------------------------------------------------------




--------------------------------------- Iteration      1(  19)  ---------------------------------------


    POTLOK:  cpu time    3.0671: real time    3.0907
    SETDIJ:  cpu time    0.0644: real time    0.0647
    TRIAL :  cpu time    0.8604: real time    0.8690
    CORREC:  cpu time    3.4287: real time    3.4562
    CHARGE:  cpu time    0.1150: real time    0.1162
    --------------------------------------------
      LOOP:  cpu time    7.5751: real time    7.6382

 eigenvalue-minimisations  :     0
 total energy-change (2. order) :-0.4850719E-04  (-0.2011651E-04)
 number of electron     216.0000000 magnetization 
 augmentation part       -0.4135695 magnetization 

 Free energy of the ion-electron system (eV)
  ---------------------------------------------------
  alpha Z        PSCENC =        59.93625244
  Ewald energy   TEWEN  =     32916.94435984
  -Hartree energ DENC   =    -39969.19119556
  -exchange      EXHF   =         0.00000000
  -V(xc)+E(xc)   XCENC  =       443.94838843
  PAW double counting   =    106979.65296187  -106686.16518968
  entropy T*S    EENTRO =        -0.00000000
  eigenvalues    EBANDS =     -2577.67489260
  atomic energy  EATOM  =      8415.03548706
  ---------------------------------------------------
  free energy    TOTEN  =      -417.51382819 eV

  energy without entropy =     -417.51382819  energy(sigma->0) =     -417.51382819


--------------------------------------------------------------------------------------------------------




--------------------------------------- Iteration      1(  20)  ---------------------------------------


    POTLOK:  cpu time    3.0627: real time    3.0870
    SETDIJ:  cpu time    0.0642: real time    0.0645
    TRIAL :  cpu time    0.8565: real time    0.8650
    CORREC:  cpu time    3.4194: real time    3.4477
    CHARGE:  cpu time    0.1150: real time    0.1162
    --------------------------------------------
      LOOP:  cpu time    7.5321: real time    7.6226

 eigenvalue-minimisations  :     0
 total energy-change (2. order) :-0.1978394E-04  (-0.9010392E-05)
 number of electron     216.0000000 magnetization 
 augmentation part       -0.4135851 magnetization 

 Free energy of the ion-electron system (eV)
  ---------------------------------------------------
  alpha Z        PSCENC =        59.93625244
  Ewald energy   TEWEN  =     32916.94435984
  -Hartree energ DENC   =    -39969.21368822
  -exchange      EXHF   =         0.00000000
  -V(xc)+E(xc)   XCENC  =       443.94907440
  PAW double counting   =    106990.29188059  -106696.80413237
  entropy T*S    EENTRO =        -0.00000000
  eigenvalues    EBANDS =     -2577.65308172
  atomic energy  EATOM  =      8415.03548706
  ---------------------------------------------------
  free energy    TOTEN  =      -417.51384797 eV

  energy without entropy =     -417.51384797  energy(sigma->0) =     -417.51384797


--------------------------------------------------------------------------------------------------------




--------------------------------------- Iteration      1(  21)  ---------------------------------------


    POTLOK:  cpu time    3.0617: real time    3.0857
    SETDIJ:  cpu time    0.0639: real time    0.0641
    TRIAL :  cpu time    0.8549: real time    0.8637
    CORREC:  cpu time    3.4098: real time    3.4379
    CHARGE:  cpu time    0.1160: real time    0.1172
    --------------------------------------------
      LOOP:  cpu time    7.5521: real time    7.6171

 eigenvalue-minimisations  :     0
 total energy-change (2. order) :-0.8928793E-05  (-0.4923803E-05)
 number of electron     216.0000000 magnetization 
 augmentation part       -0.4135696 magnetization 

 Free energy of the ion-electron system (eV)
  ---------------------------------------------------
  alpha Z        PSCENC =        59.93625244
  Ewald energy   TEWEN  =     32916.94435984
  -Hartree energ DENC   =    -39969.19488149
  -exchange      EXHF   =         0.00000000
  -V(xc)+E(xc)   XCENC  =       443.94823171
  PAW double counting   =    106993.13748550  -106699.64978358
  entropy T*S    EENTRO =        -0.00000000
  eigenvalues    EBANDS =     -2577.67100839
  atomic energy  EATOM  =      8415.03548706
  ---------------------------------------------------
  free energy    TOTEN  =      -417.51385690 eV

  energy without entropy =     -417.51385690  energy(sigma->0) =     -417.51385690


--------------------------------------------------------------------------------------------------------




--------------------------------------- Iteration      1(  22)  ---------------------------------------


    POTLOK:  cpu time    3.0676: real time    3.0912
    SETDIJ:  cpu time    0.0645: real time    0.0647
    TRIAL :  cpu time    0.8769: real time    0.8852
    CORREC:  cpu time    3.4222: real time    3.4494
    CHARGE:  cpu time    0.1150: real time    0.1161
    --------------------------------------------
      LOOP:  cpu time    7.5662: real time    7.6290

 eigenvalue-minimisations  :     0
 total energy-change (2. order) :-0.4906426E-05  (-0.2297692E-05)
 number of electron     216.0000000 magnetization 
 augmentation part       -0.4135515 magnetization 

 Free energy of the ion-electron system (eV)
  ---------------------------------------------------
  alpha Z        PSCENC =        59.93625244
  Ewald energy   TEWEN  =     32916.94435984
  -Hartree energ DENC   =    -39969.18554882
  -exchange      EXHF   =         0.00000000
  -V(xc)+E(xc)   XCENC  =       443.94789327
  PAW double counting   =    106991.95940846  -106698.47184837
  entropy T*S    EENTRO =        -0.00000000
  eigenvalues    EBANDS =     -2577.67986571
  atomic energy  EATOM  =      8415.03548706
  ---------------------------------------------------
  free energy    TOTEN  =      -417.51386181 eV

  energy without entropy =     -417.51386181  energy(sigma->0) =     -417.51386181


--------------------------------------------------------------------------------------------------------




--------------------------------------- Iteration      1(  23)  ---------------------------------------


    POTLOK:  cpu time    3.0669: real time    3.0909
    SETDIJ:  cpu time    0.0641: real time    0.0644
    TRIAL :  cpu time    0.8627: real time    0.8713
    CORREC:  cpu time    3.4403: real time    3.4696
    CHARGE:  cpu time    0.1157: real time    0.1168
    --------------------------------------------
      LOOP:  cpu time    7.6104: real time    7.6743

 eigenvalue-minimisations  :     0
 total energy-change (2. order) :-0.2309782E-05  (-0.8719459E-06)
 number of electron     216.0000000 magnetization 
 augmentation part       -0.4135500 magnetization 

 Free energy of the ion-electron system (eV)
  ---------------------------------------------------
  alpha Z        PSCENC =        59.93625244
  Ewald energy   TEWEN  =     32916.94435984
  -Hartree energ DENC   =    -39969.18614549
  -exchange      EXHF   =         0.00000000
  -V(xc)+E(xc)   XCENC  =       443.94809045
  PAW double counting   =    106990.37201245  -106696.88455478
  entropy T*S    EENTRO =        -0.00000000
  eigenvalues    EBANDS =     -2577.67936610
  atomic energy  EATOM  =      8415.03548706
  ---------------------------------------------------
  free energy    TOTEN  =      -417.51386412 eV

  energy without entropy =     -417.51386412  energy(sigma->0) =     -417.51386412


--------------------------------------------------------------------------------------------------------




--------------------------------------- Iteration      1(  24)  ---------------------------------------


    POTLOK:  cpu time    3.0606: real time    3.0849
    SETDIJ:  cpu time    0.0641: real time    0.0643
    TRIAL :  cpu time    0.8544: real time    0.8629
    CORREC:  cpu time    3.4220: real time    3.4499
    CHARGE:  cpu time    0.1154: real time    0.1165
    --------------------------------------------
      LOOP:  cpu time    7.5367: real time    7.6239

 eigenvalue-minimisations  :     0
 total energy-change (2. order) :-0.8882780E-06  (-0.3862823E-06)
 number of electron     216.0000000 magnetization 
 augmentation part       -0.4135482 magnetization 

 Free energy of the ion-electron system (eV)
  ---------------------------------------------------
  alpha Z        PSCENC =        59.93625244
  Ewald energy   TEWEN  =     32916.94435984
  -Hartree energ DENC   =    -39969.17677700
  -exchange      EXHF   =         0.00000000
  -V(xc)+E(xc)   XCENC  =       443.94784711
  PAW double counting   =    106989.94181151  -106696.45430007
  entropy T*S    EENTRO =        -0.00000000
  eigenvalues    EBANDS =     -2577.68854590
  atomic energy  EATOM  =      8415.03548706
  ---------------------------------------------------
  free energy    TOTEN  =      -417.51386501 eV

  energy without entropy =     -417.51386501  energy(sigma->0) =     -417.51386501


--------------------------------------------------------------------------------------------------------




--------------------------------------- Iteration      1(  25)  ---------------------------------------


    POTLOK:  cpu time    3.0580: real time    3.0821
    SETDIJ:  cpu time    0.0642: real time    0.0644
    TRIAL :  cpu time    0.8553: real time    0.8651
    CORREC:  cpu time    3.4196: real time    3.4487
    CHARGE:  cpu time    0.1149: real time    0.1161
    --------------------------------------------
      LOOP:  cpu time    7.5616: real time    7.6345

 eigenvalue-minimisations  :     0
 total energy-change (2. order) :-0.3927707E-06  (-0.1695138E-06)
 number of electron     216.0000000 magnetization 
 augmentation part       -0.4135488 magnetization 

 Free energy of the ion-electron system (eV)
  ---------------------------------------------------
  alpha Z        PSCENC =        59.93625244
  Ewald energy   TEWEN  =     32916.94435984
  -Hartree energ DENC   =    -39969.17794131
  -exchange      EXHF   =         0.00000000
  -V(xc)+E(xc)   XCENC  =       443.94797566
  PAW double counting   =    106989.91503772  -106696.42751792
  entropy T*S    EENTRO =        -0.00000000
  eigenvalues    EBANDS =     -2577.68751890
  atomic energy  EATOM  =      8415.03548706
  ---------------------------------------------------
  free energy    TOTEN  =      -417.51386540 eV

  energy without entropy =     -417.51386540  energy(sigma->0) =     -417.51386540


--------------------------------------------------------------------------------------------------------




--------------------------------------- Iteration      1(  26)  ---------------------------------------


    POTLOK:  cpu time    3.0794: real time    3.1055
    SETDIJ:  cpu time    0.0643: real time    0.0645
    TRIAL :  cpu time    0.8746: real time    0.8829
    CORREC:  cpu time    3.4084: real time    3.4376
    CHARGE:  cpu time    0.1147: real time    0.1158
    --------------------------------------------
      LOOP:  cpu time    7.5695: real time    7.6359

 eigenvalue-minimisations  :     0
 total energy-change (2. order) :-0.1726148E-06  (-0.7643740E-07)
 number of electron     216.0000000 magnetization 
 augmentation part       -0.4135476 magnetization 

 Free energy of the ion-electron system (eV)
  ---------------------------------------------------
  alpha Z        PSCENC =        59.93625244
  Ewald energy   TEWEN  =     32916.94435984
  -Hartree energ DENC   =    -39969.17919562
  -exchange      EXHF   =         0.00000000
  -V(xc)+E(xc)   XCENC  =       443.94797844
  PAW double counting   =    106989.94545323  -106696.45791480
  entropy T*S    EENTRO =        -0.00000000
  eigenvalues    EBANDS =     -2577.68628617
  atomic energy  EATOM  =      8415.03548706
  ---------------------------------------------------
  free energy    TOTEN  =      -417.51386557 eV

  energy without entropy =     -417.51386557  energy(sigma->0) =     -417.51386557


--------------------------------------------------------------------------------------------------------




--------------------------------------- Iteration      1(  27)  ---------------------------------------


    POTLOK:  cpu time    3.0780: real time    3.1019
    SETDIJ:  cpu time    0.0633: real time    0.0635
    TRIAL :  cpu time    0.8554: real time    0.8636
    CORREC:  cpu time    3.4193: real time    3.4535
    EDDIAG:  cpu time    0.3244: real time    0.3283
    CHARGE:  cpu time    0.1152: real time    0.1164
    --------------------------------------------
      LOOP:  cpu time    7.8910: real time    7.9641

 eigenvalue-minimisations  :     0
 total energy-change (2. order) :-0.7722701E-07  (-0.3034992E-07)
 number of electron     216.0000000 magnetization 
 augmentation part       -0.4135466 magnetization 

 Free energy of the ion-electron system (eV)
  ---------------------------------------------------
  alpha Z        PSCENC =        59.93625244
  Ewald energy   TEWEN  =     32916.94435984
  -Hartree energ DENC   =    -39969.18018428
  -exchange      EXHF   =         0.00000000
  -V(xc)+E(xc)   XCENC  =       443.94800731
  PAW double counting   =    106990.08270846  -106696.59517472
  entropy T*S    EENTRO =        -0.00000000
  eigenvalues    EBANDS =     -2577.68532178
  atomic energy  EATOM  =      8415.03548706
  ---------------------------------------------------
  free energy    TOTEN  =      -417.51386565 eV

  energy without entropy =     -417.51386565  energy(sigma->0) =     -417.51386565


--------------------------------------------------------------------------------------------------------


  average scaling for gradient   0.9042


 average (electrostatic) potential at core
  the test charge radii are     0.5770  0.5955
  (the norm of the test charge is              1.0000)
       1 -85.6802       2 -85.6780       3 -85.6833       4 -85.6870       5 -85.6754
       6 -85.6738       7 -85.6818       8 -85.6761       9 -85.6769      10 -85.6809
[...]
      21 -85.6729      22 -85.6728      23 -85.6884      24 -85.6879      25 -85.6739
      26 -85.6752      27 -85.6775      28 -85.6818      29 -85.6738      30 -85.6740
      31 -85.6852      32 -85.6817      33 -85.6766      34 -85.6749      35 -85.6746
      36 -85.6759      37 -85.6778      38 -85.6792      39 -85.6795      40 -85.6786
      41 -85.6788      42 -85.6805      43 -85.6768      44 -85.6802      45 -85.6739
      46 -85.6741      47 -85.6758      48 -85.6745      49 -85.6786      50 -85.6772
      51 -89.5852      52-120.1046      53-120.1050
 
 
 
 E-fermi :  -4.0147     XC(G=0):  -2.7273     alpha+bet : -2.1113

 Fermi energy:        -4.0146759886

 k-point     1 :       0.0000    0.0000    0.0000
  band No.  band energies     occupation 
      1     -27.3109      2.00000
      2     -26.3179      2.00000
      3     -22.0924      2.00000
      4     -21.1581      2.00000
      5     -21.1566      2.00000
      6     -21.1541      2.00000
      7     -21.1535      2.00000
      8     -21.1518      2.00000
      9     -21.1517      2.00000
     10     -19.3165      2.00000
     11     -19.3164      2.00000
     12     -19.3159      2.00000
     13     -19.3154      2.00000
     14     -19.3151      2.00000
     15     -19.3150      2.00000
     16     -18.4212      2.00000
     17     -18.4208      2.00000
     18     -18.4206      2.00000
     19     -18.4205      2.00000
     20     -18.4203      2.00000
     21     -18.4198      2.00000
     22     -16.2608      2.00000
     23     -16.2606      2.00000
     24     -16.2602      2.00000
     25     -16.2597      2.00000
     26     -16.2577      2.00000
     27     -16.2576      2.00000
     28     -15.2817      2.00000
     29     -15.2815      2.00000
     30     -15.2808      2.00000
     31     -15.2807      2.00000
     32     -15.2801      2.00000
     33     -15.2800      2.00000
     34     -13.9327      2.00000
     35     -13.9326      2.00000
     36     -13.9322      2.00000
     37     -13.9320      2.00000
     38     -13.9320      2.00000
     39     -13.9312      2.00000
     40     -12.1548      2.00000
     41     -11.5564      2.00000
     42     -11.5563      2.00000
     43     -11.5558      2.00000
     44     -11.5557      2.00000
     45     -11.5551      2.00000
     46     -11.5551      2.00000
     47     -11.4644      2.00000
     48     -11.4644      2.00000
     49     -11.4634      2.00000
     50     -11.4634      2.00000
     51     -11.4619      2.00000
     52     -11.4617      2.00000
     53     -10.9983      2.00000
     54     -10.9387      2.00000
     55     -10.9348      2.00000
     56     -10.2485      2.00000
     57     -10.0933      2.00000
     58     -10.0932      2.00000
     59     -10.0924      2.00000
     60     -10.0921      2.00000
     61     -10.0916      2.00000
     62     -10.0916      2.00000
     63      -9.1383      2.00000
     64      -9.1361      2.00000
     65      -9.1311      2.00000
     66      -9.1308      2.00000
     67      -9.1281      2.00000
     68      -9.1277      2.00000
     69      -8.8305      2.00000
     70      -8.8289      2.00000
     71      -8.8287      2.00000
     72      -8.8275      2.00000
     73      -8.8273      2.00000
     74      -8.8272      2.00000
     75      -8.7702      2.00000
     76      -8.7700      2.00000
     77      -8.7699      2.00000
     78      -8.7692      2.00000
     79      -8.7685      2.00000
     80      -8.7677      2.00000
     81      -7.4017      2.00000
     82      -7.3987      2.00000
     83      -7.1799      2.00000
     84      -7.1795      2.00000
     85      -7.1792      2.00000
     86      -7.1788      2.00000
     87      -7.1764      2.00000
     88      -7.1763      2.00000
     89      -7.0044      2.00000
     90      -7.0042      2.00000
     91      -7.0010      2.00000
     92      -7.0000      2.00000
     93      -6.9999      2.00000
     94      -6.9987      2.00000
     95      -6.1073      2.00000
     96      -6.1058      2.00000
     97      -6.1053      2.00000
     98      -6.1031      2.00000
     99      -6.1027      2.00000
    100      -6.1021      2.00000
    101      -5.7006      2.00000
    102      -5.6984      2.00000
    103      -4.1227      2.00000
    104      -4.1220      2.00000
    105      -4.1208      2.00000
    106      -4.1202      2.00000
    107      -4.1169      2.00000
    108      -4.1167      2.00000
    109      -1.3225      0.00000
    110      -1.3222      0.00000
    111      -1.3192      0.00000
    112      -1.3187      0.00000
    113      -1.3180      0.00000
    114      -1.3177      0.00000
    115       0.0405      0.00000
    116       0.5382      0.00000
    117       0.5393      0.00000
    118       0.5402      0.00000
    119       0.5422      0.00000
    120       0.5426      0.00000
    121       0.5455      0.00000
    122       0.6386      0.00000
    123       1.0710      0.00000
    124       1.1934      0.00000
    125       1.2620      0.00000
    126       1.3796      0.00000
    127       1.4800      0.00000
    128       1.4816      0.00000
    129       1.4882      0.00000
    130       1.5055      0.00000
    131       1.5566      0.00000
    132       1.9106      0.00000
    133       2.1043      0.00000
    134       2.2133      0.00000
    135       2.2848      0.00000
    136       2.2862      0.00000


--------------------------------------------------------------------------------------------------------


 soft charge-density along one line, spin component           1
         0         1         2         3         4         5         6         7         8         9
 total charge-density along one line
 
 pseudopotential strength for first ion, spin component:           1
 12.708  21.385  -0.000   0.000   0.000  -0.000   0.000   0.000
 21.385  35.986  -0.000   0.000   0.000  -0.000   0.000   0.000
 -0.000  -0.000  -3.191  -0.000   0.000  -5.720  -0.000   0.000
  0.000   0.000  -0.000  -3.194  -0.000  -0.000  -5.724  -0.000
  0.000   0.000   0.000  -0.000  -3.191   0.000  -0.000  -5.720
 -0.000  -0.000  -5.720  -0.000   0.000 -10.228  -0.000   0.000
  0.000   0.000  -0.000  -5.724  -0.000  -0.000 -10.235  -0.000
  0.000   0.000   0.000  -0.000  -5.720   0.000  -0.000 -10.228
 total augmentation occupancy for first ion, spin component:           1
  7.652  -2.660  -0.000  -0.002   0.000   0.000   0.001  -0.000
 -2.660   0.962   0.000   0.001  -0.000  -0.000  -0.000   0.000
 -0.000   0.000   7.068  -0.008   0.000  -2.370   0.003  -0.000
 -0.002   0.001  -0.008   3.114  -0.000   0.003  -0.813   0.000
  0.000  -0.000   0.000  -0.000   7.068  -0.000   0.000  -2.369
  0.000  -0.000  -2.370   0.003  -0.000   0.809  -0.001   0.000
  0.001  -0.000   0.003  -0.813   0.000  -0.001   0.219  -0.000
 -0.000   0.000  -0.000   0.000  -2.369   0.000  -0.000   0.809


------------------------ aborting loop because EDIFF is reached ----------------------------------------


    FORLOC:  cpu time    0.0511: real time    0.0517
    FORNL :  cpu time    0.6772: real time    0.6809
    FORCOR:  cpu time    3.1391: real time    3.1633
    OFIELD:  cpu time    0.0014: real time    0.0014

 VOLUME and BASIS-vectors are now :
 -----------------------------------------------------------------------------
  energy-cutoff  :     1000.00
  volume of cell :     2631.08
      direct lattice vectors                 reciprocal lattice vectors
    12.325000000  0.000000000  0.000000000     0.081135903  0.046843835  0.000000000
    -6.162500000 10.673763102  0.000000000     0.000000000  0.093687670  0.000000000
     0.000000000  0.000000000 20.000000000     0.000000000  0.000000000  0.050000000

  length of vectors
    12.325000000 12.325000000 20.000000000     0.093687670  0.093687670  0.050000000


 FORCES acting on ions:
    Electron-Ion                     Ewald-Force                    Non-Local-Force
 -----------------------------------------------------------------------------------------------
   0.673E+01 0.587E+01 0.217E+02   -.674E+01 -.587E+01 -.217E+02   0.109E-01 -.215E-02 0.997E-02
   0.103E+02 0.503E+01 0.267E+02   -.103E+02 -.502E+01 -.267E+02   0.137E-01 -.722E-02 -.437E-02
   0.468E+01 0.123E+02 0.312E+02   -.468E+01 -.123E+02 -.312E+02   -.140E-02 0.262E-01 0.175E-01
   0.663E+01 0.964E+01 0.436E+02   -.665E+01 -.964E+01 -.436E+02   0.255E-01 0.757E-02 0.271E-01
   0.723E+01 0.170E+01 0.219E+02   -.723E+01 -.170E+01 -.219E+02   0.392E-02 -.112E-01 -.172E-02
   0.749E+01 -.138E+01 0.222E+02   -.748E+01 0.138E+01 -.222E+02   -.962E-02 0.191E-03 -.107E-01
   0.121E+02 0.455E+01 0.393E+02   -.121E+02 -.453E+01 -.393E+02   0.307E-01 -.314E-01 0.539E-02
   0.117E+02 -.413E+01 0.410E+02   -.117E+02 0.415E+01 -.409E+02   0.810E-02 -.171E-01 -.169E-01
   -.543E+01 0.111E+02 0.314E+02   0.544E+01 -.111E+02 -.314E+02   -.115E-01 -.489E-02 -.114E-01
   -.882E+01 0.745E+01 0.421E+02   0.885E+01 -.747E+01 -.421E+02   -.475E-01 0.293E-01 0.689E-02
   0.184E+01 -.172E+01 0.183E+02   -.183E+01 0.172E+01 -.183E+02   -.238E-03 -.836E-03 -.451E-02
   0.153E+01 -.126E+01 0.172E+02   -.152E+01 0.126E+01 -.172E+02   -.119E-01 0.527E-02 0.235E-02
   0.468E+01 -.103E+02 0.451E+02   -.471E+01 0.103E+02 -.451E+02   0.495E-01 -.216E-01 0.182E-02
   0.244E+01 -.123E+02 0.320E+02   -.246E+01 0.123E+02 -.320E+02   0.153E-01 -.291E-03 -.208E-01
   -.647E+01 0.403E+01 0.212E+02   0.647E+01 -.403E+01 -.212E+02   0.919E-02 -.443E-02 -.159E-02
   -.918E+01 0.267E+01 0.239E+02   0.918E+01 -.267E+01 -.239E+02   -.533E-02 0.984E-02 -.147E-01
   -.107E+01 -.429E+00 0.166E+02   0.108E+01 0.425E+00 -.166E+02   -.519E-02 0.182E-02 0.118E-02
   0.538E+00 0.382E+01 0.175E+02   -.533E+00 -.382E+01 -.175E+02   -.658E-02 0.374E-02 0.918E-02
   -.182E+01 -.110E+02 0.260E+02   0.181E+01 0.110E+02 -.260E+02   0.150E-01 -.706E-02 0.415E-02
   -.880E+00 -.581E+01 0.192E+02   0.872E+00 0.581E+01 -.192E+02   0.466E-02 -.489E-02 -.142E-02
   0.104E+02 -.457E+01 0.284E+02   -.104E+02 0.458E+01 -.283E+02   0.136E-02 -.644E-02 -.310E-01
   0.661E+01 -.560E+01 0.235E+02   -.661E+01 0.560E+01 -.235E+02   -.798E-02 0.790E-02 -.126E-01
   -.227E+01 0.455E+01 0.515E+02   0.228E+01 -.456E+01 -.515E+02   -.226E-01 0.214E-01 0.525E-01
   -.332E+01 -.716E+01 0.499E+02   0.331E+01 0.718E+01 -.499E+02   0.195E-01 -.297E-01 0.378E-01
   0.330E+01 -.138E+01 0.184E+02   -.329E+01 0.138E+01 -.184E+02   -.163E-02 -.547E-03 -.852E-02
   0.676E+00 0.292E+01 0.186E+02   -.671E+00 -.293E+01 -.186E+02   -.101E-01 0.583E-02 0.855E-03
   -.126E+02 0.166E+01 0.338E+02   0.126E+02 -.167E+01 -.338E+02   -.109E-02 0.167E-01 -.755E-02
   -.119E+02 -.486E+01 0.315E+02   0.119E+02 0.485E+01 -.316E+02   -.233E-01 0.166E-01 0.970E-02
   0.398E+01 -.803E+01 0.244E+02   -.399E+01 0.803E+01 -.244E+02   0.105E-01 0.227E-02 -.159E-01
   0.362E+00 -.320E+01 0.195E+02   -.368E+00 0.320E+01 -.195E+02   -.179E-02 0.418E-02 -.782E-02
   -.914E+01 -.968E+01 0.372E+02   0.916E+01 0.969E+01 -.373E+02   -.247E-01 -.155E-01 0.171E-01
   -.578E+01 -.106E+02 0.273E+02   0.578E+01 0.106E+02 -.273E+02   0.499E-03 -.127E-01 0.138E-01
   0.414E+00 0.165E+01 0.171E+02   -.419E+00 -.165E+01 -.171E+02   0.966E-02 -.677E-02 0.435E-02
   0.111E+01 0.165E+01 0.183E+02   -.112E+01 -.164E+01 -.183E+02   -.454E-03 0.196E-02 -.496E-02
   -.455E+01 0.643E+00 0.197E+02   0.455E+01 -.647E+00 -.197E+02   0.529E-02 -.399E-03 0.256E-03
   -.397E+01 -.163E+01 0.192E+02   0.398E+01 0.163E+01 -.192E+02   -.905E-02 0.562E-02 -.246E-03
   -.788E+01 -.409E+01 0.220E+02   0.790E+01 0.409E+01 -.220E+02   -.994E-02 0.272E-02 0.347E-02
   -.479E+01 -.385E+01 0.189E+02   0.480E+01 0.385E+01 -.190E+02   -.895E-02 0.201E-02 0.103E-01
   -.443E+01 -.575E+01 0.201E+02   0.444E+01 0.575E+01 -.202E+02   -.775E-02 -.333E-02 0.825E-02
   -.665E+00 -.142E+01 0.176E+02   0.665E+00 0.143E+01 -.176E+02   0.279E-02 -.127E-02 0.860E-02
   0.166E+01 0.407E+01 0.182E+02   -.166E+01 -.407E+01 -.182E+02   -.481E-02 0.599E-02 0.856E-02
   0.531E+01 0.832E+01 0.228E+02   -.532E+01 -.833E+01 -.228E+02   0.518E-02 0.476E-02 0.144E-01
   0.445E+00 0.704E+01 0.199E+02   -.436E+00 -.704E+01 -.199E+02   -.564E-02 0.593E-02 0.606E-03
   -.692E-01 0.119E+02 0.276E+02   0.843E-01 -.119E+02 -.276E+02   -.191E-01 0.928E-02 0.876E-02
   -.133E+01 0.260E+01 0.194E+02   0.133E+01 -.260E+01 -.194E+02   0.234E-02 -.391E-02 -.471E-02
   -.537E+01 0.670E+01 0.231E+02   0.537E+01 -.670E+01 -.231E+02   -.109E-01 0.168E-02 -.109E-01
   -.105E+01 -.283E+01 0.182E+02   0.104E+01 0.283E+01 -.182E+02   0.113E-01 -.276E-02 0.216E-02
   -.259E+01 0.102E+01 0.175E+02   0.259E+01 -.102E+01 -.174E+02   0.117E-02 0.168E-02 -.721E-02
   0.238E+00 -.177E+01 0.173E+02   -.241E+00 0.177E+01 -.173E+02   0.714E-02 -.418E-02 0.605E-02
   0.279E+01 0.202E+01 0.175E+02   -.280E+01 -.202E+01 -.175E+02   0.497E-02 0.965E-03 0.321E-02
   0.529E-01 -.326E-01 -.318E+03   -.513E-01 0.323E-01 0.318E+03   -.433E-02 0.286E-02 -.214E-01
   -.229E+03 0.156E+03 -.489E+03   0.279E+03 -.190E+03 0.492E+03   -.511E+02 0.348E+02 -.348E+01
   0.229E+03 -.156E+03 -.469E+03   -.279E+03 0.190E+03 0.466E+03   0.511E+02 -.348E+02 0.304E+01
 -----------------------------------------------------------------------------------------------
   0.353E-02 0.663E-02 0.364E+00   0.568E-13 0.284E-13 0.114E-12   -.366E-02 -.651E-02 -.365E+00
 
 
 POSITION                                       TOTAL-FORCE (eV/Angst)
 -----------------------------------------------------------------------------------
     11.98348      0.00342      0.01417         0.002623     -0.000675     -0.000319
     -0.34154      1.42665      0.01100        -0.002175      0.000052     -0.000894
      2.12355      0.00315      0.01249        -0.000581      0.005927     -0.001903
      2.12326      1.42653      0.00641         0.008111      0.000566      0.000856
     10.75099      2.13819      0.01213         0.000266     -0.004702      0.001006
     -1.57382      3.56123      0.01110        -0.006737      0.005519     -0.000409
      0.89078      2.13854      0.00548         0.005736     -0.012886      0.007072
      0.89099      3.56147      0.00181        -0.012369     -0.000238      0.014977
      4.58864      0.00346      0.01135         0.004786     -0.015120     -0.000559
      4.58894      1.42623      0.00646        -0.016521      0.009441      0.018520
      9.51854      4.27281      0.01369         0.006979     -0.003935      0.000502
     -2.80632      5.69591      0.01434        -0.006338      0.003344      0.000988
      2.12300      4.27302      0.00000         0.016902     -0.002766      0.024764
      2.12335      5.69594      0.00581        -0.001943      0.008661      0.000559
      7.05344      0.00333      0.01399         0.007985     -0.004316      0.000609
      7.05353      1.42635      0.01368        -0.002183      0.004388     -0.001924
      8.28610      6.40752      0.01601         0.003508     -0.001543     -0.000489
     -4.03885      7.83070      0.01636        -0.001752      0.001107      0.000069
      3.35586      6.40753      0.01007         0.002988      0.000219      0.000215
      3.35599      7.83072      0.01320        -0.003398      0.000874      0.000006
     -0.34146      4.27290      0.00723        -0.000426     -0.001696     -0.001768
     -0.34138      5.69591      0.00946        -0.007992      0.004689      0.000324
      3.35624      2.13791      0.00222        -0.008112      0.007977      0.026674
      3.35573      3.56155      0.00139         0.008994     -0.010843      0.018504
     -1.57395      6.40758      0.01311         0.006793     -0.004243     -0.000287
     -1.57385      7.83068      0.01438        -0.004554      0.003797      0.000436
      5.82093      2.13784      0.01033         0.015817      0.003207      0.000175
      5.82114      3.56097      0.01156        -0.003892      0.004912     -0.000378
      0.89092      6.40755      0.00907         0.004074      0.001222     -0.000476
      0.89106      7.83068      0.01235        -0.007264      0.002572      0.000726
      4.58871      4.27293      0.00850        -0.007849     -0.004984     -0.003921
      4.58852      5.69606      0.01149         0.001566      0.002036     -0.001368
      9.51845      0.00337      0.01490         0.004585     -0.004641      0.000368
      9.51855      1.42644      0.01438        -0.004872      0.006257     -0.000018
      8.28593      2.13803      0.01453         0.005255     -0.004020      0.001076
      8.28613      3.56115      0.01464        -0.004097      0.001764      0.000492
      7.05356      4.27269      0.01457         0.003952     -0.000742      0.000656
      7.05362      5.69588      0.01553        -0.002235      0.000970      0.000161
      5.82112      6.40755      0.01489        -0.001718      0.002058      0.000564
      5.82102      7.83073      0.01579         0.002446      0.000725     -0.000125
      7.05363      8.54227      0.01631        -0.004320      0.000313      0.001427
     -5.27149      9.96549      0.01495        -0.001333     -0.002917     -0.000918
     -2.80638      8.54234      0.01558         0.003396     -0.002164     -0.000301
     -2.80627      9.96553      0.01362        -0.003634     -0.000002     -0.001604
     -0.34149      8.54239      0.01378         0.005859     -0.003606      0.000679
     -0.34138      9.96550      0.01354        -0.005749      0.000797      0.000310
      2.12343      8.54232      0.01336         0.005644     -0.001538      0.001024
      2.12354      9.96544      0.01469        -0.006306      0.004228     -0.001606
      4.58846      8.54235      0.01505         0.003468     -0.002905      0.001113
      4.58853      9.96550      0.01517        -0.003575      0.003145      0.000561
      3.04930      2.68154      4.20448        -0.002570      0.002562     -0.014255
      4.02070      2.02068      4.26890        -0.528340      0.359254     -0.077888
      2.07767      3.34267      4.14503         0.531103     -0.362101     -0.014002
 -----------------------------------------------------------------------------------
    total drift:                               -0.000129      0.000117     -0.001088


--------------------------------------------------------------------------------------------------------



  FREE ENERGIE OF THE ION-ELECTRON SYSTEM (eV)
  ---------------------------------------------------
  free  energy   TOTEN  =      -417.51386565 eV

  energy  without entropy=     -417.51386565  energy(sigma->0) =     -417.51386565
 


--------------------------------------------------------------------------------------------------------


    POTLOK:  cpu time    3.1432: real time    3.1677


--------------------------------------------------------------------------------------------------------


 writing wavefunctions
     LOOP+:  cpu time  209.8062: real time  212.5955
    4ORBIT:  cpu time    0.0000: real time    0.0000

 total amount of memory used by VASP MPI-rank0    85439. kBytes
=======================================================================

   base      :      30000. kBytes
   nonl-proj :       6586. kBytes
   fftplans  :      14299. kBytes
   grid      :      23511. kBytes
   one-center:          6. kBytes
   wavefun   :      11037. kBytes
 
  
  
 General timing and accounting informations for this job:
 ========================================================
  
                  Total CPU time used (sec):      243.008
                            User time (sec):      223.378
                          System time (sec):       19.630
                         Elapsed time (sec):      247.591
  
                   Maximum memory used (kb):      678996.
                   Average memory used (kb):          N/A
  
                          Minor page faults:       428327
                          Major page faults:          103
                 Voluntary context switches:         3798
