 vasp.6.2.1 16May21 (build Nov 06 2021 14:46:37) complex                        
  
 executed on             LinuxIFC date 2025.04.16  18:51:42
 running on  112 total cores
 distrk:  each k-point on  112 cores,    1 groups
 distr:  one band on NCORE=  28 cores,    4 groups


--------------------------------------------------------------------------------------------------------


 INCAR:
   ALGO = Conjugate
   NPAR = 4
   ISMEAR = 0
   SIGMA = 0.01
   PREC = Accurate
   EDIFF = 1E-7
   ENCUT = 1000
   ISIF = 0
   GGA = MK
   PARAM1 = 0.1234
   PARAM2 = 1.0000
   LUSE_VDW = .TRUE.
   AGGAC = 0.0000
   LASPH = .TRUE.
   SYMPREC = 1E-7

 POTCAR:    PAW_PBE C_h 06Feb2004                 
 POTCAR:    PAW_PBE O_h 06Feb2004                 
 -----------------------------------------------------------------------------
|                                                                             |
|           W    W    AA    RRRRR   N    N  II  N    N   GGGG   !!!           |
|           W    W   A  A   R    R  NN   N  II  NN   N  G    G  !!!           |
|           W    W  A    A  R    R  N N  N  II  N N  N  G       !!!           |
|           W WW W  AAAAAA  RRRRR   N  N N  II  N  N N  G  GGG   !            |
|           WW  WW  A    A  R   R   N   NN  II  N   NN  G    G                |
|           W    W  A    A  R    R  N    N  II  N    N   GGGG   !!!           |
|                                                                             |
|     For optimal performance we recommend to set                             |
|       NCORE = 2 up to number-of-cores-per-socket                            |
|     NCORE specifies how many cores store one orbital (NPAR=cpu/NCORE).      |
|     This setting can greatly improve the performance of VASP for DFT.       |
|     The default, NCORE=1 might be grossly inefficient on modern             |
|     multi-core architectures or massively parallel machines. Do your        |
|     own testing! More info at https://www.vasp.at/wiki/index.php/NCORE      |
|     Unfortunately you need to use the default for GW and RPA                |
|     calculations (for HF NCORE is supported but not extensively tested      |
|     yet).                                                                   |
|                                                                             |
 -----------------------------------------------------------------------------

 -----------------------------------------------------------------------------
|                                                                             |
|               ----> ADVICE to this user running VASP <----                  |
|                                                                             |
|     You have switched on vdW-DFT.                                           |
|     This routine was written and supplied by Jiri Klimes. We recommend      |
|     that you carefully read and cite the following publications:            |
|       J. Klimes, D.R. Bowler, A. Michelides                                 |
|          J. Phys.: Cond Matt. 22 022201 (2010)                              |
|       J. Klimes, D.R. Bowler, A. Michelides                                 |
|          Phys. Rev. B. 83, 195131 (2011)                                    |
|     and references therein.                                                 |
|                                                                             |
 -----------------------------------------------------------------------------

 POTCAR:    PAW_PBE C_h 06Feb2004                 
   VRHFIN =C: s2p2                                                                                  
   LEXCH  = PE                                                                                      
   EATOM  =   147.1560 eV,   10.8157 Ry                                                             
                                                                                                    
   TITEL  = PAW_PBE C_h 06Feb2004                                                                   
   LULTRA =        F    use ultrasoft PP ?                                                          
   IUNSCR =        1    unscreen: 0-lin 1-nonlin 2-no                                               
   RPACOR =    0.800    partial core radius                                                         
   POMASS =   12.011; ZVAL   =    4.000    mass and valenz                                          
   RCORE  =    1.100    outmost cutoff radius                                                       
   RWIGS  =    1.630; RWIGS  =    0.863    wigner-seitz radius (au A)                               
   ENMAX  =  700.000; ENMIN  =  500.000 eV                                                          
   ICORE  =        2    local potential                                                             
   LCOR   =        T    correct aug charges                                                         
   LPAW   =        T    paw PP                                                                      
   EAUG   =  946.768                                                                                
   DEXC   =    0.000                                                                                
   RMAX   =    1.128    core radius for proj-oper                                                   
   RAUG   =    1.300    factor for augmentation sphere                                              
   RDEP   =    1.162    radius for radial grids                                                     
   RDEPT  =    1.088    core radius for aug-charge                                                  
                                                                                                    
   Atomic configuration                                                                             
    4 entries                                                                                       
     n  l   j            E        occ.                                                              
     1  0  0.50      -273.3789   2.0000                                                             
     2  0  0.50       -13.7508   2.0000                                                             
     2  1  0.50        -5.2854   2.0000                                                             
     3  2  1.50        -5.4423   0.0000                                                             
   Description                                                                                      
     l       E           TYP  RCUT    TYP  RCUT                                                     
     0    -13.7508458     23  1.100                                                                 
     0     -8.2022199     23  1.100                                                                 
     1     -5.2854383     23  1.100                                                                 
     1      1.1560700     23  1.100                                                                 
     2     -5.4423304      7  1.100                                                                 
  local pseudopotential read in
  partial core-charges read in
  partial kinetic energy density read in
  atomic valenz-charges read in
  non local Contribution for L=           0  read in
    real space projection operators read in
  non local Contribution for L=           0  read in
    real space projection operators read in
  non local Contribution for L=           1  read in
    real space projection operators read in
  non local Contribution for L=           1  read in
    real space projection operators read in
    PAW grid and wavefunctions read in
 
   number of l-projection  operators is LMAX  =           4
   number of lm-projection operators is LMMAX =           8
 
 POTCAR:    PAW_PBE O_h 06Feb2004                 
   VRHFIN =O: s2p4                                                                                  
   LEXCH  = PE                                                                                      
   EATOM  =   432.3788 eV,   31.7789 Ry                                                             
                                                                                                    
   TITEL  = PAW_PBE O_h 06Feb2004                                                                   
   LULTRA =        F    use ultrasoft PP ?                                                          
   IUNSCR =        1    unscreen: 0-lin 1-nonlin 2-no                                               
   RPACOR =    0.800    partial core radius                                                         
   POMASS =   16.000; ZVAL   =    6.000    mass and valenz                                          
   RCORE  =    1.100    outmost cutoff radius                                                       
   RWIGS  =    1.400; RWIGS  =    0.741    wigner-seitz radius (au A)                               
   ENMAX  =  700.000; ENMIN  =  500.000 eV                                                          
   ICORE  =        2    local potential                                                             
   LCOR   =        T    correct aug charges                                                         
   LPAW   =        T    paw PP                                                                      
   EAUG   =  888.804                                                                                
   DEXC   =    0.000                                                                                
   RMAX   =    1.128    core radius for proj-oper                                                   
   RAUG   =    1.300    factor for augmentation sphere                                              
   RDEP   =    1.125    radius for radial grids                                                     
   RDEPT  =    1.088    core radius for aug-charge                                                  
                                                                                                    
   Atomic configuration                                                                             
    4 entries                                                                                       
     n  l   j            E        occ.                                                              
     1  0  0.50      -514.6923   2.0000                                                             
     2  0  0.50       -23.9615   2.0000                                                             
     2  1  0.50        -9.0305   4.0000                                                             
     3  2  1.50        -9.5241   0.0000                                                             
   Description                                                                                      
     l       E           TYP  RCUT    TYP  RCUT                                                     
     0    -23.9615319     23  1.100                                                                 
     0    -25.3221145     23  1.100                                                                 
     1     -9.0304911     23  1.100                                                                 
     1     -5.4802209     23  1.100                                                                 
     2     -9.5240782      7  1.100                                                                 
  local pseudopotential read in
  partial core-charges read in
  partial kinetic energy density read in
  atomic valenz-charges read in
  non local Contribution for L=           0  read in
    real space projection operators read in
  non local Contribution for L=           0  read in
    real space projection operators read in
  non local Contribution for L=           1  read in
    real space projection operators read in
  non local Contribution for L=           1  read in
    real space projection operators read in
    PAW grid and wavefunctions read in
 
   number of l-projection  operators is LMAX  =           4
   number of lm-projection operators is LMMAX =           8
 
 -----------------------------------------------------------------------------
|                                                                             |
|               ----> ADVICE to this user running VASP <----                  |
|                                                                             |
|     You have a (more or less) 'large supercell' and for larger cells it     |
|     might be more efficient to use real-space projection operators.         |
|     Therefore, try LREAL= Auto in the INCAR file.                           |
|     Mind: For very accurate calculation, you might also keep the            |
|     reciprocal projection scheme (i.e. LREAL=.FALSE.).                      |
|                                                                             |
 -----------------------------------------------------------------------------

 -----------------------------------------------------------------------------
|                                                                             |
|               ----> ADVICE to this user running VASP <----                  |
|                                                                             |
|     You enforced a specific xc type in the INCAR file but a different       |
|     type was found in the POTCAR file.                                      |
|     I HOPE YOU KNOW WHAT YOU ARE DOING!                                     |
|                                                                             |
 -----------------------------------------------------------------------------

  PAW_PBE C_h 06Feb2004                 :
 energy of atom  1       EATOM= -147.1560
 kinetic energy error for atom=    0.0031 (will be added to EATOM!!)
  PAW_PBE O_h 06Feb2004                 :
 energy of atom  2       EATOM= -432.3788
 kinetic energy error for atom=    0.0171 (will be added to EATOM!!)
 
 
 POSCAR:  C  O
  positions in cartesian coordinates
  No initial velocities read in
 exchange correlation table for  LEXCH =       43
   RHO(1)=    0.500       N(1)  =     2000
   RHO(2)=  100.500       N(2)  =     4000
 


--------------------------------------------------------------------------------------------------------


 ion  position               nearest neighbor table
   1  0.972  0.000  0.001-  50 1.42   2 1.42  42 1.42
   2  0.039  0.134  0.000-   5 1.42   7 1.42   1 1.42
   3  0.172  0.000  0.000-  42 1.42  44 1.42   4 1.42
   4  0.239  0.134  0.000-   7 1.42   3 1.42  23 1.42
   5  0.972  0.200  0.000-   6 1.42   2 1.42  34 1.42
   6  0.039  0.334  0.000-   5 1.42  21 1.42  11 1.42
   7  0.172  0.200  0.000-   8 1.42   2 1.42   4 1.42
   8  0.239  0.334  0.000-  13 1.42   7 1.42  21 1.42
   9  0.372  0.000  0.000-  10 1.42  44 1.42  46 1.42
  10  0.439  0.134  0.000-  27 1.42   9 1.42  23 1.42
  11  0.972  0.400  0.001-  12 1.42  36 1.42   6 1.42
  12  0.039  0.534  0.001-  25 1.42  11 1.42  17 1.42
  13  0.372  0.400  0.000-   8 1.42  14 1.42  24 1.42
  14  0.439  0.534  0.000-  13 1.42  29 1.42  19 1.42
  15  0.572  0.000  0.001-  46 1.42  16 1.42  48 1.42
  16  0.639  0.134  0.001-  15 1.42  35 1.42  27 1.42
  17  0.972  0.600  0.001-  38 1.42  18 1.42  12 1.42
  18  0.039  0.734  0.001-  43 1.42  41 1.42  17 1.42
  19  0.572  0.600  0.000-  14 1.42  20 1.42  32 1.42
  20  0.639  0.734  0.001-  49 1.42  19 1.42  47 1.42
  21  0.172  0.400  0.000-  22 1.42   8 1.42   6 1.42
  22  0.239  0.534  0.000-  21 1.42  29 1.42  25 1.42
  23  0.372  0.200  0.000-  10 1.42   4 1.42  24 1.42
  24  0.439  0.334  0.000-  13 1.42  31 1.42  23 1.42
  25  0.172  0.600  0.001-  26 1.42  12 1.42  22 1.42
  26  0.239  0.734  0.001-  25 1.42  45 1.42  43 1.42
  27  0.572  0.200  0.000-  10 1.42  28 1.42  16 1.42
  28  0.639  0.334  0.000-  27 1.42  37 1.42  31 1.42
  29  0.372  0.600  0.000-  22 1.42  14 1.42  30 1.42
  30  0.439  0.734  0.000-  47 1.42  29 1.42  45 1.42
  31  0.572  0.400  0.000-  32 1.42  28 1.42  24 1.42
  32  0.639  0.534  0.000-  31 1.42  39 1.42  19 1.42
  33  0.772  0.000  0.001-  34 1.42  48 1.42  50 1.42
  34  0.839  0.134  0.001-  33 1.42   5 1.42  35 1.42
  35  0.772  0.200  0.001-  36 1.42  16 1.42  34 1.42
  36  0.839  0.334  0.001-  35 1.42  11 1.42  37 1.42
  37  0.772  0.400  0.001-  28 1.42  38 1.42  36 1.42
  38  0.839  0.534  0.001-  17 1.42  37 1.42  39 1.42
  39  0.772  0.600  0.001-  40 1.42  38 1.42  32 1.42
  40  0.839  0.734  0.001-  39 1.42  49 1.42  41 1.42
  41  0.972  0.800  0.001-  18 1.42  42 1.42  40 1.42
  42  0.039  0.934  0.001-   3 1.42  41 1.42   1 1.42
  43  0.172  0.800  0.001-  18 1.42  44 1.42  26 1.42
  44  0.239  0.934  0.001-   9 1.42  43 1.42   3 1.42
  45  0.372  0.800  0.001-  26 1.42  46 1.42  30 1.42
  46  0.439  0.934  0.001-  15 1.42  45 1.42   9 1.42
  47  0.572  0.800  0.001-  30 1.42  48 1.42  20 1.42
  48  0.639  0.934  0.001-  47 1.42  33 1.42  15 1.42
  49  0.772  0.800  0.001-  50 1.42  20 1.42  40 1.42
  50  0.839  0.934  0.001-  49 1.42   1 1.42  33 1.42
  51  0.373  0.251  0.356-  52 1.18  53 1.18
  52  0.421  0.189  0.359-  51 1.18
  53  0.325  0.313  0.354-  51 1.18
 
  LATTYP: Found a hexagonal cell.
 ALAT       =    12.3250000000
 C/A-ratio  =     2.0283975659
  
  Lattice vectors:
  
 A1 = (  12.3250000000,   0.0000000000,   0.0000000000)
 A2 = (  -6.1625000000,  10.6737631016,   0.0000000000)
 A3 = (   0.0000000000,   0.0000000000,  25.0000000000)


Analysis of symmetry for initial positions (statically):
=====================================================================
 Subroutine PRICEL returns:
 Original cell was already a primitive cell.
 

 Routine SETGRP: Setting up the symmetry group for a 
 hexagonal supercell.


 Subroutine GETGRP returns: Found  1 space group operations
 (whereof  1 operations were pure point group operations)
 out of a pool of 24 trial point group operations.


The static configuration has the point symmetry C_1 .


Analysis of symmetry for dynamics (positions and initial velocities):
=====================================================================
 Subroutine PRICEL returns:
 Original cell was already a primitive cell.
 

 Routine SETGRP: Setting up the symmetry group for a 
 hexagonal supercell.


 Subroutine GETGRP returns: Found  1 space group operations
 (whereof  1 operations were pure point group operations)
 out of a pool of 24 trial point group operations.


The dynamic configuration has the point symmetry C_1 .


 Subroutine INISYM returns: Found  1 space group operations
 (whereof  1 operations are pure point group operations),
 and found     1 'primitive' translations


----------------------------------------------------------------------------------------

                                     Primitive cell                                     

  volume of cell :    3288.8533

  direct lattice vectors                    reciprocal lattice vectors
    12.325000000  0.000000000  0.000000000     0.081135903  0.046843835  0.000000000
    -6.162500000 10.673763102  0.000000000     0.000000000  0.093687670  0.000000000
     0.000000000  0.000000000 25.000000000     0.000000000  0.000000000  0.040000000

  length of vectors
    12.325000000 12.325000000 25.000000000     0.093687670  0.093687670  0.040000000

  position of ions in fractional coordinates (direct lattice)
     0.972450841  0.000320818  0.000566711
     0.039118382  0.133659505  0.000440173
     0.172443627  0.000295449  0.000499628
     0.239096278  0.133647917  0.000256468
     0.972452058  0.200322012  0.000485219
     0.039128360  0.333643771  0.000444150
     0.172451764  0.200354552  0.000219167
     0.239124359  0.333665720  0.000072260
     0.372465565  0.000324403  0.000453913
     0.439137473  0.133619939  0.000258338
     0.972449824  0.400309362  0.000547611
     0.039124981  0.533636789  0.000573410
     0.372416176  0.400329481  0.000000000
     0.439099602  0.533638981  0.000232414
     0.572443676  0.000312125  0.000559580
     0.639110207  0.133631751  0.000547275
     0.972452703  0.600305653  0.000640289
     0.039124495  0.733640359  0.000654513
     0.572433471  0.600306242  0.000402895
     0.639111888  0.733641879  0.000527905
     0.172454630  0.400318228  0.000289045
     0.239120185  0.533636548  0.000378509
     0.372459750  0.200295993  0.000088997
     0.439107096  0.333673419  0.000055762
     0.172452155  0.600311506  0.000524340
     0.239123371  0.733638574  0.000575129
     0.572431082  0.200289171  0.000413296
     0.639112773  0.333618630  0.000462376
     0.372439808  0.600308022  0.000362844
     0.439116090  0.733637858  0.000494190
     0.572469358  0.400320504  0.000339918
     0.639119408  0.533650873  0.000459610
     0.772445723  0.000315427  0.000596161
     0.839116277  0.133640203  0.000575306
     0.772440513  0.200307432  0.000581033
     0.839120241  0.333635728  0.000585467
     0.772446320  0.400298367  0.000582978
     0.839118980  0.533633964  0.000621100
     0.772456143  0.600308173  0.000595712
     0.839115033  0.733643180  0.000631512
     0.972455313  0.800305582  0.000652233
     0.039114714  0.933643289  0.000598051
     0.172457971  0.800312211  0.000623372
     0.239134551  0.933647193  0.000544850
     0.372451396  0.800316674  0.000551399
     0.439124489  0.933644769  0.000541430
     0.572441101  0.800310054  0.000534535
     0.639115067  0.933638985  0.000587644
     0.772445098  0.800313187  0.000602062
     0.839116614  0.933644338  0.000606830
     0.373021009  0.251226878  0.356359487
     0.420879805  0.189313152  0.358936362
     0.325156981  0.313167186  0.353981292

  ion indices of the primitive-cell ions
   primitive index   ion index
                 1           1
                 2           2
                 3           3
                 4           4
                 5           5
                 6           6
                 7           7
                 8           8
                 9           9
                10          10
                11          11
                12          12
                13          13
                14          14
                15          15
                16          16
                17          17
                18          18
                19          19
                20          20
                21          21
                22          22
                23          23
                24          24
                25          25
                26          26
                27          27
                28          28
                29          29
                30          30
                31          31
                32          32
                33          33
                34          34
                35          35
                36          36
                37          37
                38          38
                39          39
                40          40
                41          41
                42          42
                43          43
                44          44
                45          45
                46          46
                47          47
                48          48
                49          49
                50          50
                51          51
                52          52
                53          53

----------------------------------------------------------------------------------------

 
 
 KPOINTS: auto                                    

Automatic generation of k-mesh.
 Grid dimensions read from file:
 generate k-points for:    1    1    1

 Generating k-lattice:

  Cartesian coordinates                     Fractional coordinates (reciprocal lattice)
     0.081135903  0.046843835  0.000000000     1.000000000 -0.000000000  0.000000000
     0.000000000  0.093687670  0.000000000     0.000000000  1.000000000  0.000000000
     0.000000000  0.000000000  0.040000000     0.000000000  0.000000000  1.000000000

  Length of vectors
     0.093687670  0.093687670  0.040000000

  Shift w.r.t. Gamma in fractional coordinates (k-lattice)
     0.000000000  0.000000000  0.000000000

 
 Subroutine IBZKPT returns following result:
 ===========================================
 
 Found      1 irreducible k-points:
 
 Following reciprocal coordinates:
            Coordinates               Weight
  0.000000  0.000000  0.000000      1.000000
 
 Following cartesian coordinates:
            Coordinates               Weight
  0.000000  0.000000  0.000000      1.000000
 


--------------------------------------------------------------------------------------------------------




 Dimension of arrays:
   k-points           NKPTS =      1   k-points in BZ     NKDIM =      1   number of bands    NBANDS=    136
   number of dos      NEDOS =    301   number of ions     NIONS =     53
   non local maximal  LDIM  =      4   non local SUM 2l+1 LMDIM =      8
   total plane-waves  NPLWV = ******
   max r-space proj   IRMAX =      1   max aug-charges    IRDMAX=  10008
   dimension x,y,z NGX =   128 NGY =  128 NGZ =  270
   dimension x,y,z NGXF=   256 NGYF=  256 NGZF=  540
   support grid    NGXF=   256 NGYF=  256 NGZF=  540
   ions per type =              51   2
   NGX,Y,Z   is equivalent  to a cutoff of  17.27, 17.27, 17.95 a.u.
   NGXF,Y,Z  is equivalent  to a cutoff of  34.53, 34.53, 35.91 a.u.

 SYSTEM =  unknown system                          
 POSCAR =   C  O                                   

 Startparameter for this run:
   NWRITE =      2    write-flag & timer
   PREC   = accura    normal or accurate (medium, high low for compatibility)
   ISTART =      0    job   : 0-new  1-cont  2-samecut
   ICHARG =      2    charge: 1-file 2-atom 10-const
   ISPIN  =      1    spin polarized calculation?
   LNONCOLLINEAR =      F non collinear calculations
   LSORBIT =      F    spin-orbit coupling
   INIWAV =      1    electr: 0-lowe 1-rand  2-diag
   LASPH  =      T    aspherical Exc in radial PAW
 Electronic Relaxation 1
   ENCUT  = 1000.0 eV  73.50 Ry    8.57 a.u.  31.78 31.78 64.46*2*pi/ulx,y,z
   ENINI  = 1000.0     initial cutoff
   ENAUG  =  946.8 eV  augmentation charge cutoff
   NELM   =     60;   NELMIN=  2; NELMDL= -5     # of ELM steps 
   EDIFF  = 0.1E-06   stopping-criterion for ELM
   LREAL  =      F    real-space projection
   NLSPLINE    = F    spline interpolate recip. space projectors
   LCOMPAT=      F    compatible to vasp.4.4
   GGA_COMPAT  = T    GGA compatible to vasp.4.4-vasp.4.6
   LMAXPAW     = -100 max onsite density
   LMAXMIX     =    2 max onsite mixed and CHGCAR
   VOSKOWN=      0    Vosko Wilk Nusair interpolation
   ROPT   =    0.00000   0.00000
 Ionic relaxation
   EDIFFG = 0.1E-05   stopping-criterion for IOM
   NSW    =      0    number of steps for IOM
   NBLOCK =      1;   KBLOCK =      1    inner block; outer block 
   IBRION =     -1    ionic relax: 0-MD 1-quasi-New 2-CG
   NFREE  =      0    steps in history (QN), initial steepest desc. (CG)
   ISIF   =      0    stress and relaxation
   IWAVPR =     10    prediction:  0-non 1-charg 2-wave 3-comb
   ISYM   =      2    0-nonsym 1-usesym 2-fastsym
   LCORR  =      T    Harris-Foulkes like correction to forces

   POTIM  = 0.5000    time-step for ionic-motion
   TEIN   =    0.0    initial temperature
   TEBEG  =    0.0;   TEEND  =   0.0 temperature during run
   SMASS  =  -3.00    Nose mass-parameter (am)
   estimated Nose-frequenzy (Omega)   =  0.10E-29 period in steps = 0.13E+47 mass=  -0.347E-26a.u.
   SCALEE = 1.0000    scale energy and forces
   NPACO  =    256;   APACO  = 16.0  distance and # of slots for P.C.
   PSTRESS=    0.0 pullay stress

  Mass of Ions in am
   POMASS =  12.01 16.00
  Ionic Valenz
   ZVAL   =   4.00  6.00
  Atomic Wigner-Seitz radii
   RWIGS  =  -1.00 -1.00
  virtual crystal weights 
   VCA    =   1.00  1.00
   NELECT =     216.0000    total number of electrons
   NUPDOWN=      -1.0000    fix difference up-down

 DOS related values:
   EMIN   =  10.00;   EMAX   =-10.00  energy-range for DOS
   EFERMI =   0.00
   ISMEAR =     0;   SIGMA  =   0.01  broadening in eV -4-tet -1-fermi 0-gaus

 Electronic relaxation 2 (details)
   IALGO  =     58    algorithm
   LDIAG  =      T    sub-space diagonalisation (order eigenvalues)
   LSUBROT=      F    optimize rotation matrix (better conditioning)
   TURBO    =      0    0=normal 1=particle mesh
   IRESTART =      0    0=no restart 2=restart with 2 vectors
   NREBOOT  =      0    no. of reboots
   NMIN     =      0    reboot dimension
   EREF     =   0.00    reference energy to select bands
   IMIX   =      4    mixing-type and parameters
     AMIX     =   0.40;   BMIX     =  1.00
     AMIX_MAG =   1.60;   BMIX_MAG =  1.00
     AMIN     =   0.10
     WC   =   100.;   INIMIX=   1;  MIXPRE=   1;  MAXMIX= -45

 Intra band minimization:
   WEIMIN = 0.0000     energy-eigenvalue tresh-hold
   EBREAK =  0.18E-09  absolut break condition
   DEPER  =   0.30     relativ break condition  

   TIME   =   0.40     timestep for ELM

  volume/ion in A,a.u.               =      62.05       418.76
  Fermi-wavevector in a.u.,A,eV,Ry     =   0.660508  1.248179  5.935820  0.436270
  Thomas-Fermi vector in A             =   1.732977
 
 Write flags
   LWAVE        =      T    write WAVECAR
   LDOWNSAMPLE  =      F    k-point downsampling of WAVECAR
   LCHARG       =      T    write CHGCAR
   LVTOT        =      F    write LOCPOT, total local potential
   LVHAR        =      F    write LOCPOT, Hartree potential only
   LELF         =      F    write electronic localiz. function (ELF)
   LORBIT       =      0    0 simple, 1 ext, 2 COOP (PROOUT), +10 PAW based schemes


 Dipole corrections
   LMONO  =      F    monopole corrections only (constant potential shift)
   LDIPOL =      F    correct potential (dipole corrections)
   IDIPOL =      0    1-x, 2-y, 3-z, 4-all directions 
   EPSILON=  1.0000000 bulk dielectric constant

 Exchange correlation treatment:
   GGA     =    MK    GGA type
   LEXCH   =    43    internal setting for exchange type
   VOSKOWN=      0    Vosko Wilk Nusair interpolation
   LHFCALC =     F    Hartree Fock is set to
   LHFONE  =     F    Hartree Fock one center treatment
   AEXX    =    0.0000 exact exchange contribution

 vdW DFT:
   LUSE_VDW   =     T    switch on vdW DFT
   Zab_VDW    =-.8491    correlation parameter
   PARAM1     =0.1234
   PARAM2     =1.0000
   PARAM3     =0.0000
   -- rVV10 --
   BPARAM     = 6.3000
   CPARAM     = 0.0093

 Linear response parameters
   LEPSILON=     F    determine dielectric tensor
   LRPA    =     F    only Hartree local field effects (RPA)
   LNABLA  =     F    use nabla operator in PAW spheres
   LVEL    =     F    velocity operator in full k-point grid
   LINTERFAST=   F  fast interpolation
   KINTER  =     0    interpolate to denser k-point grid
   CSHIFT  =0.1000    complex shift for real part using Kramers Kronig
   OMEGAMAX=  -1.0    maximum frequency
   DEG_THRESHOLD= 0.2000000E-02 threshold for treating states as degnerate
   RTIME   =   -0.100 relaxation time in fs
  (WPLASMAI=    0.000 imaginary part of plasma frequency in eV, 0.658/RTIME)
   DFIELD  = 0.0000000 0.0000000 0.0000000 field for delta impulse in time
 
 Orbital magnetization related:
   ORBITALMAG=     F  switch on orbital magnetization
   LCHIMAG   =     F  perturbation theory with respect to B field
   DQ        =  0.001000  dq finite difference perturbation B field
   LLRAUG    =     F  two centre corrections for induced B field



--------------------------------------------------------------------------------------------------------


 Static calculation
 charge density and potential will be updated during run
 non-spin polarized calculation
 Conjugate gradient for all bands (Freysoldt, et al. PRB 79, 241103 (2009))
 preconditioned conjugated gradient                                        
 perform sub-space diagonalisation
    before iterative eigenvector-optimisation
 modified Broyden-mixing scheme, WC =      100.0
 initial mixing is a Kerker type mixing with AMIX =  0.4000 and BMIX =      1.0000
 Hartree-type preconditioning will be used
 using additional bands           28
 reciprocal scheme for non local part
 use partial core corrections
 no Harris-corrections to forces 
 use gradient corrections 
 use of overlap-Matrix (Vanderbilt PP)
 Gauss-broadening in eV      SIGMA  =   0.01


--------------------------------------------------------------------------------------------------------


  energy-cutoff  :     1000.00
  volume of cell :     3288.85
      direct lattice vectors                 reciprocal lattice vectors
    12.325000000  0.000000000  0.000000000     0.081135903  0.046843835  0.000000000
    -6.162500000 10.673763102  0.000000000     0.000000000  0.093687670  0.000000000
     0.000000000  0.000000000 25.000000000     0.000000000  0.000000000  0.040000000

  length of vectors
    12.325000000 12.325000000 25.000000000     0.093687670  0.093687670  0.040000000


 
 k-points in units of 2pi/SCALE and weight: auto                                    
   0.00000000  0.00000000  0.00000000       1.000
 
 k-points in reciprocal lattice and weights: auto                                    
   0.00000000  0.00000000  0.00000000       1.000
 
 position of ions in fractional coordinates (direct lattice) 
   0.97245084  0.00032082  0.00056671
   0.03911838  0.13365950  0.00044017
   0.17244363  0.00029545  0.00049963
   0.23909628  0.13364792  0.00025647
   0.97245206  0.20032201  0.00048522
   0.03912836  0.33364377  0.00044415
   0.17245176  0.20035455  0.00021917
   0.23912436  0.33366572  0.00007226
   0.37246557  0.00032440  0.00045391
   0.43913747  0.13361994  0.00025834
   0.97244982  0.40030936  0.00054761
   0.03912498  0.53363679  0.00057341
   0.37241618  0.40032948  0.00000000
   0.43909960  0.53363898  0.00023241
   0.57244368  0.00031213  0.00055958
   0.63911021  0.13363175  0.00054727
   0.97245270  0.60030565  0.00064029
   0.03912449  0.73364036  0.00065451
   0.57243347  0.60030624  0.00040289
   0.63911189  0.73364188  0.00052791
   0.17245463  0.40031823  0.00028904
   0.23912018  0.53363655  0.00037851
   0.37245975  0.20029599  0.00008900
   0.43910710  0.33367342  0.00005576
   0.17245216  0.60031151  0.00052434
   0.23912337  0.73363857  0.00057513
   0.57243108  0.20028917  0.00041330
   0.63911277  0.33361863  0.00046238
   0.37243981  0.60030802  0.00036284
   0.43911609  0.73363786  0.00049419
   0.57246936  0.40032050  0.00033992
   0.63911941  0.53365087  0.00045961
   0.77244572  0.00031543  0.00059616
   0.83911628  0.13364020  0.00057531
   0.77244051  0.20030743  0.00058103
   0.83912024  0.33363573  0.00058547
   0.77244632  0.40029837  0.00058298
   0.83911898  0.53363396  0.00062110
   0.77245614  0.60030817  0.00059571
   0.83911503  0.73364318  0.00063151
   0.97245531  0.80030558  0.00065223
   0.03911471  0.93364329  0.00059805
   0.17245797  0.80031221  0.00062337
   0.23913455  0.93364719  0.00054485
   0.37245140  0.80031667  0.00055140
   0.43912449  0.93364477  0.00054143
   0.57244110  0.80031005  0.00053453
   0.63911507  0.93363899  0.00058764
   0.77244510  0.80031319  0.00060206
   0.83911661  0.93364434  0.00060683
   0.37302101  0.25122688  0.35635949
   0.42087980  0.18931315  0.35893636
   0.32515698  0.31316719  0.35398129
 
 position of ions in cartesian coordinates  (Angst):
  11.98347958  0.00342433  0.01416777
  -0.34154264  1.42664989  0.01100432
   2.12354700  0.00315355  0.01249070
   2.12325634  1.42652621  0.00641170
  10.75098721  2.13818970  0.01213047
  -1.57382270  3.56123457  0.01110375
   0.89078307  2.13853702  0.00547917
   0.89099273  3.56146885  0.00180651
   4.58863896  0.00346260  0.01134782
   4.58893648  1.42622757  0.00645846
   9.51853763  4.27280730  0.01369027
  -2.80632132  5.69591267  0.01433526
   2.12299894  4.27302204  0.00000000
   2.12335237  5.69593607  0.00581036
   7.05344483  0.00333155  0.01398950
   7.05352764  1.42635365  0.01368187
   8.28609598  6.40752033  0.01600723
  -4.03884931  7.83070339  0.01636283
   3.35585531  6.40752662  0.01007237
   3.35598594  7.83071962  0.01319763
  -0.34145776  4.27290193  0.00722612
  -0.34137895  5.69591010  0.00946273
   3.35624236  2.13791198  0.00222492
   3.35573251  3.56155103  0.00139405
  -1.57394684  6.40758280  0.01310850
  -1.57385216  7.83068434  0.01437823
   5.82093107  2.13783916  0.01033241
   5.82114012  3.56096622  0.01155939
   0.89092245  6.40754561  0.00907111
   0.89106251  7.83067670  0.01235474
   4.58870974  4.27292622  0.00849795
   4.58852320  5.69606300  0.01149026
   9.51844972  0.00336679  0.01490402
   9.51855036  1.42644387  0.01438264
   8.28593477  2.13803408  0.01452582
   8.28612680  3.56114872  0.01463668
   7.05356221  4.27268994  0.01457444
   7.05362213  5.69588251  0.01552751
   5.82112285  6.40754723  0.01489279
   5.82101669  7.83073350  0.01578780
   7.05362858  8.54227219  0.01630582
  -5.27148792  9.96548729  0.01495127
  -2.80637951  8.54234295  0.01558431
  -2.80626749  9.96552896  0.01362126
  -0.34148805  8.54239058  0.01378498
  -0.34137657  9.96550309  0.01353576
   2.12342586  8.54231992  0.01336337
   2.12354296  9.96544135  0.01469111
   4.58845581  8.54235337  0.01505154
   4.58852904  9.96549848  0.01517076
   3.04929830  2.68153618  8.90898718
   4.02070129  2.02068374  8.97340904
   2.07766701  3.34267235  8.84953231
 


--------------------------------------------------------------------------------------------------------


 k-point   1 :   0.0000 0.0000 0.0000  plane waves:  236157

 maximum and minimum number of plane-waves per node :      8440     8428

 maximum number of plane-waves:    236157
 maximum index in each direction: 
   IXMAX=   31   IYMAX=   31   IZMAX=   64
   IXMIN=  -31   IYMIN=  -31   IZMIN=  -64


 parallel 3D FFT for wavefunctions:
    minimum data exchange during FFTs selected (reduces bandwidth)
 parallel 3D FFT for charge:
    minimum data exchange during FFTs selected (reduces bandwidth)


 total amount of memory used by VASP MPI-rank0   100580. kBytes
=======================================================================

   base      :      30000. kBytes
   nonl-proj :       8229. kBytes
   fftplans  :      18352. kBytes
   grid      :      30208. kBytes
   one-center:          6. kBytes
   wavefun   :      13785. kBytes
 
     INWAV:  cpu time    0.0000: real time    0.0000
 Broyden mixing: mesh for mixing (old mesh)
   NGX = 63   NGY = 63   NGZ =129
  (NGX  =256   NGY  =256   NGZ  =540)
  gives a total of 512001 points

 initial charge density was supplied:
 charge density of overlapping atoms calculated
 number of electron     216.0000000 magnetization 
 keeping initial charge density in first step


--------------------------------------------------------------------------------------------------------


 Maximum index for augmentation-charges          471 (set IRDMAX)


--------------------------------------------------------------------------------------------------------


 First call to EWALD:  gamma=   0.119
 Maximum number of real-space cells 4x 4x 2
 Maximum number of reciprocal cells 2x 2x 4

    FEWALD:  cpu time    0.0031: real time    0.0032


--------------------------------------- Iteration      1(   1)  ---------------------------------------


vdW kernel read from vdw_kernel.bindat
  0.0000  0.2424  0.5071  0.7962  1.1119  1.4567  1.8333  2.2446  2.6937  3.1842
  3.7199  4.3049  4.9438  5.6415  6.4036  7.2358  8.1446  9.1372 10.2212 11.4050
 12.6979 14.1099 15.6519 17.3360 19.1751 21.1837 23.3773 25.7729 28.3892 31.2465
 34.3669 37.7748 41.4965 45.5611 50.0000
 
    POTLOK:  cpu time    4.5141: real time    4.5551
    SETDIJ:  cpu time    0.0556: real time    0.0559
    TRIAL :  cpu time    2.0720: real time    2.0925
    CORREC:  cpu time    0.0008: real time    0.0010
    --------------------------------------------
      LOOP:  cpu time    6.6487: real time    6.7155

 eigenvalue-minimisations  :   288
 total energy-change (2. order) : 0.2747210E+04  (-0.1018981E+05)
 number of electron     216.0000000 magnetization 
 augmentation part      216.0000000 magnetization 

 Free energy of the ion-electron system (eV)
  ---------------------------------------------------
  alpha Z        PSCENC =        47.94900195
  Ewald energy   TEWEN  =     40970.05347293
  -Hartree energ DENC   =    -47039.28430944
  -exchange      EXHF   =         0.00000000
  -V(xc)+E(xc)   XCENC  =       414.11423502
  PAW double counting   =      6552.85433684    -6257.21772958
  entropy T*S    EENTRO =        -0.00393961
  eigenvalues    EBANDS =      -356.29082551
  atomic energy  EATOM  =      8415.03548706
  ---------------------------------------------------
  free energy    TOTEN  =      2747.20972966 eV

  energy without entropy =     2747.21366926  energy(sigma->0) =     2747.21169946


--------------------------------------------------------------------------------------------------------




--------------------------------------- Iteration      1(   2)  ---------------------------------------


    TRIAL :  cpu time    2.9012: real time    2.9287
    CORREC:  cpu time    0.0001: real time    0.0002
    --------------------------------------------
      LOOP:  cpu time    2.9381: real time    2.9664

 eigenvalue-minimisations  :   456
 total energy-change (2. order) :-0.2315593E+04  (-0.2161934E+04)
 number of electron     216.0000000 magnetization 
 augmentation part      216.0000000 magnetization 

 Free energy of the ion-electron system (eV)
  ---------------------------------------------------
  alpha Z        PSCENC =        47.94900195
  Ewald energy   TEWEN  =     40970.05347293
  -Hartree energ DENC   =    -47039.28430944
  -exchange      EXHF   =         0.00000000
  -V(xc)+E(xc)   XCENC  =       414.11423502
  PAW double counting   =      6552.85433684    -6257.21772958
  entropy T*S    EENTRO =        -0.00000000
  eigenvalues    EBANDS =     -2671.88813266
  atomic energy  EATOM  =      8415.03548706
  ---------------------------------------------------
  free energy    TOTEN  =       431.61636212 eV

  energy without entropy =      431.61636212  energy(sigma->0) =      431.61636212


--------------------------------------------------------------------------------------------------------




--------------------------------------- Iteration      1(   3)  ---------------------------------------


    TRIAL :  cpu time    2.4097: real time    2.4316
    CORREC:  cpu time    0.0001: real time    0.0001
    --------------------------------------------
      LOOP:  cpu time    2.4827: real time    2.5068

 eigenvalue-minimisations  :   360
 total energy-change (2. order) :-0.8088933E+03  (-0.7968694E+03)
 number of electron     216.0000000 magnetization 
 augmentation part      216.0000000 magnetization 

 Free energy of the ion-electron system (eV)
  ---------------------------------------------------
  alpha Z        PSCENC =        47.94900195
  Ewald energy   TEWEN  =     40970.05347293
  -Hartree energ DENC   =    -47039.28430944
  -exchange      EXHF   =         0.00000000
  -V(xc)+E(xc)   XCENC  =       414.11423502
  PAW double counting   =      6552.85433684    -6257.21772958
  entropy T*S    EENTRO =        -0.00000000
  eigenvalues    EBANDS =     -3480.78143566
  atomic energy  EATOM  =      8415.03548706
  ---------------------------------------------------
  free energy    TOTEN  =      -377.27694089 eV

  energy without entropy =     -377.27694089  energy(sigma->0) =     -377.27694089


--------------------------------------------------------------------------------------------------------




--------------------------------------- Iteration      1(   4)  ---------------------------------------


    TRIAL :  cpu time    2.3296: real time    2.3504
    CORREC:  cpu time    0.0001: real time    0.0000
    --------------------------------------------
      LOOP:  cpu time    2.3584: real time    2.3809

 eigenvalue-minimisations  :   344
 total energy-change (2. order) :-0.7060262E+02  (-0.6949271E+02)
 number of electron     216.0000000 magnetization 
 augmentation part      216.0000000 magnetization 

 Free energy of the ion-electron system (eV)
  ---------------------------------------------------
  alpha Z        PSCENC =        47.94900195
  Ewald energy   TEWEN  =     40970.05347293
  -Hartree energ DENC   =    -47039.28430944
  -exchange      EXHF   =         0.00000000
  -V(xc)+E(xc)   XCENC  =       414.11423502
  PAW double counting   =      6552.85433684    -6257.21772958
  entropy T*S    EENTRO =        -0.00000000
  eigenvalues    EBANDS =     -3551.38405620
  atomic energy  EATOM  =      8415.03548706
  ---------------------------------------------------
  free energy    TOTEN  =      -447.87956142 eV

  energy without entropy =     -447.87956142  energy(sigma->0) =     -447.87956142


--------------------------------------------------------------------------------------------------------




--------------------------------------- Iteration      1(   5)  ---------------------------------------


    TRIAL :  cpu time    2.4863: real time    2.5081
    CORREC:  cpu time    0.0001: real time    0.0000
    CHARGE:  cpu time    0.1803: real time    0.1827
    --------------------------------------------
      LOOP:  cpu time    2.7495: real time    2.7743

 eigenvalue-minimisations  :   376
 total energy-change (2. order) :-0.2090933E+01  (-0.2072511E+01)
 number of electron     216.0000000 magnetization 
 augmentation part       -0.2478417 magnetization 

 Free energy of the ion-electron system (eV)
  ---------------------------------------------------
  alpha Z        PSCENC =        47.94900195
  Ewald energy   TEWEN  =     40970.05347293
  -Hartree energ DENC   =    -47039.28430944
  -exchange      EXHF   =         0.00000000
  -V(xc)+E(xc)   XCENC  =       414.11423502
  PAW double counting   =      6552.85433684    -6257.21772958
  entropy T*S    EENTRO =        -0.00000000
  eigenvalues    EBANDS =     -3553.47498926
  atomic energy  EATOM  =      8415.03548706
  ---------------------------------------------------
  free energy    TOTEN  =      -449.97049448 eV

  energy without entropy =     -449.97049448  energy(sigma->0) =     -449.97049448


--------------------------------------------------------------------------------------------------------




--------------------------------------- Iteration      1(   6)  ---------------------------------------


    POTLOK:  cpu time    4.2302: real time    4.2677
    SETDIJ:  cpu time    0.0543: real time    0.0545
    TRIAL :  cpu time    1.1766: real time    1.1871
    CORREC:  cpu time    4.6829: real time    4.7186
    CHARGE:  cpu time    0.1789: real time    0.1806
    --------------------------------------------
      LOOP:  cpu time   10.3573: real time   10.4600

 eigenvalue-minimisations  :     0
 total energy-change (2. order) : 0.5113714E+02  (-0.1583917E+02)
 number of electron     216.0000000 magnetization 
 augmentation part       -0.3429337 magnetization 

 Free energy of the ion-electron system (eV)
  ---------------------------------------------------
  alpha Z        PSCENC =        47.94900195
  Ewald energy   TEWEN  =     40970.05347293
  -Hartree energ DENC   =    -48473.86610753
  -exchange      EXHF   =         0.00000000
  -V(xc)+E(xc)   XCENC  =       461.70935445
  PAW double counting   =     85912.27344915   -85621.63925524
  entropy T*S    EENTRO =        -0.00000000
  eigenvalues    EBANDS =     -2110.34875793
  atomic energy  EATOM  =      8415.03548706
  ---------------------------------------------------
  free energy    TOTEN  =      -398.83335515 eV

  energy without entropy =     -398.83335515  energy(sigma->0) =     -398.83335515


--------------------------------------------------------------------------------------------------------




--------------------------------------- Iteration      1(   7)  ---------------------------------------


    POTLOK:  cpu time    4.2374: real time    4.2684
    SETDIJ:  cpu time    0.0543: real time    0.0545
    TRIAL :  cpu time    1.1564: real time    1.1674
    CORREC:  cpu time    4.6707: real time    4.7148
    CHARGE:  cpu time    0.1785: real time    0.1810
    --------------------------------------------
      LOOP:  cpu time   10.4119: real time   10.5034

 eigenvalue-minimisations  :     0
 total energy-change (2. order) :-0.1588930E+02  (-0.1852335E+01)
 number of electron     216.0000000 magnetization 
 augmentation part       -0.3880069 magnetization 

 Free energy of the ion-electron system (eV)
  ---------------------------------------------------
  alpha Z        PSCENC =        47.94900195
  Ewald energy   TEWEN  =     40970.05347293
  -Hartree energ DENC   =    -47959.14355076
  -exchange      EXHF   =         0.00000000
  -V(xc)+E(xc)   XCENC  =       444.63559221
  PAW double counting   =    101006.78726876  -100713.74134750
  entropy T*S    EENTRO =        -0.00000000
  eigenvalues    EBANDS =     -2626.29858249
  atomic energy  EATOM  =      8415.03548706
  ---------------------------------------------------
  free energy    TOTEN  =      -414.72265784 eV

  energy without entropy =     -414.72265784  energy(sigma->0) =     -414.72265784


--------------------------------------------------------------------------------------------------------




--------------------------------------- Iteration      1(   8)  ---------------------------------------


    POTLOK:  cpu time    4.1892: real time    4.2288
    SETDIJ:  cpu time    0.0543: real time    0.0545
    TRIAL :  cpu time    1.1522: real time    1.1681
    CORREC:  cpu time    4.6921: real time    4.7505
    CHARGE:  cpu time    0.1738: real time    0.1797
    --------------------------------------------
      LOOP:  cpu time   10.3492: real time   10.4798

 eigenvalue-minimisations  :     0
 total energy-change (2. order) :-0.1850727E+01  (-0.5016962E+00)
 number of electron     216.0000000 magnetization 
 augmentation part       -0.4058917 magnetization 

 Free energy of the ion-electron system (eV)
  ---------------------------------------------------
  alpha Z        PSCENC =        47.94900195
  Ewald energy   TEWEN  =     40970.05347293
  -Hartree energ DENC   =    -47929.82358541
  -exchange      EXHF   =         0.00000000
  -V(xc)+E(xc)   XCENC  =       444.10336090
  PAW double counting   =    104965.02513513  -104671.70103264
  entropy T*S    EENTRO =        -0.00000000
  eigenvalues    EBANDS =     -2657.21522496
  atomic energy  EATOM  =      8415.03548706
  ---------------------------------------------------
  free energy    TOTEN  =      -416.57338505 eV

  energy without entropy =     -416.57338505  energy(sigma->0) =     -416.57338505


--------------------------------------------------------------------------------------------------------




--------------------------------------- Iteration      1(   9)  ---------------------------------------


    POTLOK:  cpu time    4.2123: real time    4.2458
    SETDIJ:  cpu time    0.0541: real time    0.0543
    TRIAL :  cpu time    1.1562: real time    1.1683
    CORREC:  cpu time    4.6755: real time    4.7155
    CHARGE:  cpu time    0.1792: real time    0.1812
    --------------------------------------------
      LOOP:  cpu time   10.3115: real time   10.4023

 eigenvalue-minimisations  :     0
 total energy-change (2. order) :-0.5016089E+00  (-0.1837905E+00)
 number of electron     216.0000000 magnetization 
 augmentation part       -0.4146937 magnetization 

 Free energy of the ion-electron system (eV)
  ---------------------------------------------------
  alpha Z        PSCENC =        47.94900195
  Ewald energy   TEWEN  =     40970.05347293
  -Hartree energ DENC   =    -47946.53948828
  -exchange      EXHF   =         0.00000000
  -V(xc)+E(xc)   XCENC  =       444.30525983
  PAW double counting   =    107580.13397493  -107286.69286679
  entropy T*S    EENTRO =        -0.00000000
  eigenvalues    EBANDS =     -2641.31983556
  atomic energy  EATOM  =      8415.03548706
  ---------------------------------------------------
  free energy    TOTEN  =      -417.07499391 eV

  energy without entropy =     -417.07499391  energy(sigma->0) =     -417.07499391


--------------------------------------------------------------------------------------------------------




--------------------------------------- Iteration      1(  10)  ---------------------------------------


    POTLOK:  cpu time    4.2168: real time    4.2485
    SETDIJ:  cpu time    0.0543: real time    0.0545
    TRIAL :  cpu time    1.1614: real time    1.1721
    CORREC:  cpu time    4.7146: real time    4.7534
    CHARGE:  cpu time    0.1787: real time    0.1808
    --------------------------------------------
      LOOP:  cpu time   10.3872: real time   10.4825

 eigenvalue-minimisations  :     0
 total energy-change (2. order) :-0.1833490E+00  (-0.8565275E-01)
 number of electron     216.0000000 magnetization 
 augmentation part       -0.4152857 magnetization 

 Free energy of the ion-electron system (eV)
  ---------------------------------------------------
  alpha Z        PSCENC =        47.94900195
  Ewald energy   TEWEN  =     40970.05347293
  -Hartree energ DENC   =    -47945.30060755
  -exchange      EXHF   =         0.00000000
  -V(xc)+E(xc)   XCENC  =       444.17051946
  PAW double counting   =    108081.58263322  -107788.06181789
  entropy T*S    EENTRO =        -0.00000000
  eigenvalues    EBANDS =     -2642.68703215
  atomic energy  EATOM  =      8415.03548706
  ---------------------------------------------------
  free energy    TOTEN  =      -417.25834296 eV

  energy without entropy =     -417.25834296  energy(sigma->0) =     -417.25834296


--------------------------------------------------------------------------------------------------------




--------------------------------------- Iteration      1(  11)  ---------------------------------------


    POTLOK:  cpu time    4.2249: real time    4.2554
    SETDIJ:  cpu time    0.0541: real time    0.0543
    TRIAL :  cpu time    1.1586: real time    1.1694
    CORREC:  cpu time    4.7350: real time    4.7709
    CHARGE:  cpu time    0.1792: real time    0.1810
    --------------------------------------------
      LOOP:  cpu time   10.3915: real time   10.4724

 eigenvalue-minimisations  :     0
 total energy-change (2. order) :-0.8521175E-01  (-0.3562944E-01)
 number of electron     216.0000000 magnetization 
 augmentation part       -0.4149024 magnetization 

 Free energy of the ion-electron system (eV)
  ---------------------------------------------------
  alpha Z        PSCENC =        47.94900195
  Ewald energy   TEWEN  =     40970.05347293
  -Hartree energ DENC   =    -47938.64098149
  -exchange      EXHF   =         0.00000000
  -V(xc)+E(xc)   XCENC  =       444.08180620
  PAW double counting   =    107613.37702693  -107319.86040567
  entropy T*S    EENTRO =        -0.00000000
  eigenvalues    EBANDS =     -2649.33896263
  atomic energy  EATOM  =      8415.03548706
  ---------------------------------------------------
  free energy    TOTEN  =      -417.34355471 eV

  energy without entropy =     -417.34355471  energy(sigma->0) =     -417.34355471


--------------------------------------------------------------------------------------------------------




--------------------------------------- Iteration      1(  12)  ---------------------------------------


    POTLOK:  cpu time    4.2259: real time    4.2562
    SETDIJ:  cpu time    0.0542: real time    0.0544
    TRIAL :  cpu time    1.1554: real time    1.1661
    CORREC:  cpu time    4.6863: real time    4.7224
    CHARGE:  cpu time    0.1792: real time    0.1809
    --------------------------------------------
      LOOP:  cpu time   10.3601: real time   10.4413

 eigenvalue-minimisations  :     0
 total energy-change (2. order) :-0.3550013E-01  (-0.1123014E-01)
 number of electron     216.0000000 magnetization 
 augmentation part       -0.4147691 magnetization 

 Free energy of the ion-electron system (eV)
  ---------------------------------------------------
  alpha Z        PSCENC =        47.94900195
  Ewald energy   TEWEN  =     40970.05347293
  -Hartree energ DENC   =    -47935.42232448
  -exchange      EXHF   =         0.00000000
  -V(xc)+E(xc)   XCENC  =       444.00557667
  PAW double counting   =    107250.53356070  -106957.03462552
  entropy T*S    EENTRO =        -0.00000000
  eigenvalues    EBANDS =     -2652.49920416
  atomic energy  EATOM  =      8415.03548706
  ---------------------------------------------------
  free energy    TOTEN  =      -417.37905484 eV

  energy without entropy =     -417.37905484  energy(sigma->0) =     -417.37905484


--------------------------------------------------------------------------------------------------------




--------------------------------------- Iteration      1(  13)  ---------------------------------------


    POTLOK:  cpu time    4.2222: real time    4.2525
    SETDIJ:  cpu time    0.0543: real time    0.0545
    TRIAL :  cpu time    1.1553: real time    1.1660
    CORREC:  cpu time    4.6942: real time    4.7304
    CHARGE:  cpu time    0.1789: real time    0.1810
    --------------------------------------------
      LOOP:  cpu time   10.3730: real time   10.4559

 eigenvalue-minimisations  :     0
 total energy-change (2. order) :-0.1122181E-01  (-0.3217209E-02)
 number of electron     216.0000000 magnetization 
 augmentation part       -0.4141265 magnetization 

 Free energy of the ion-electron system (eV)
  ---------------------------------------------------
  alpha Z        PSCENC =        47.94900195
  Ewald energy   TEWEN  =     40970.05347293
  -Hartree energ DENC   =    -47935.48847177
  -exchange      EXHF   =         0.00000000
  -V(xc)+E(xc)   XCENC  =       444.00366167
  PAW double counting   =    107117.47853513  -106823.99004943
  entropy T*S    EENTRO =        -0.00000000
  eigenvalues    EBANDS =     -2652.43191421
  atomic energy  EATOM  =      8415.03548706
  ---------------------------------------------------
  free energy    TOTEN  =      -417.39027666 eV

  energy without entropy =     -417.39027666  energy(sigma->0) =     -417.39027666


--------------------------------------------------------------------------------------------------------




--------------------------------------- Iteration      1(  14)  ---------------------------------------


    POTLOK:  cpu time    4.2010: real time    4.2327
    SETDIJ:  cpu time    0.0543: real time    0.0545
    TRIAL :  cpu time    1.1538: real time    1.1669
    CORREC:  cpu time    4.6882: real time    4.7324
    CHARGE:  cpu time    0.1783: real time    0.1806
    --------------------------------------------
      LOOP:  cpu time   10.3471: real time   10.4419

 eigenvalue-minimisations  :     0
 total energy-change (2. order) :-0.3218996E-02  (-0.1109293E-02)
 number of electron     216.0000000 magnetization 
 augmentation part       -0.4137382 magnetization 

 Free energy of the ion-electron system (eV)
  ---------------------------------------------------
  alpha Z        PSCENC =        47.94900195
  Ewald energy   TEWEN  =     40970.05347293
  -Hartree energ DENC   =    -47935.43864746
  -exchange      EXHF   =         0.00000000
  -V(xc)+E(xc)   XCENC  =       444.00178954
  PAW double counting   =    107117.03558644  -106823.55092640
  entropy T*S    EENTRO =        -0.00000000
  eigenvalues    EBANDS =     -2652.47925971
  atomic energy  EATOM  =      8415.03548706
  ---------------------------------------------------
  free energy    TOTEN  =      -417.39349565 eV

  energy without entropy =     -417.39349565  energy(sigma->0) =     -417.39349565


--------------------------------------------------------------------------------------------------------




--------------------------------------- Iteration      1(  15)  ---------------------------------------


    POTLOK:  cpu time    4.2012: real time    4.2387
    SETDIJ:  cpu time    0.0541: real time    0.0544
    TRIAL :  cpu time    1.1527: real time    1.1665
    CORREC:  cpu time    4.7013: real time    4.7523
    CHARGE:  cpu time    0.1777: real time    0.1807
    --------------------------------------------
      LOOP:  cpu time   10.3366: real time   10.4552

 eigenvalue-minimisations  :     0
 total energy-change (2. order) :-0.1111630E-02  (-0.5284899E-03)
 number of electron     216.0000000 magnetization 
 augmentation part       -0.4132371 magnetization 

 Free energy of the ion-electron system (eV)
  ---------------------------------------------------
  alpha Z        PSCENC =        47.94900195
  Ewald energy   TEWEN  =     40970.05347293
  -Hartree energ DENC   =    -47935.09788592
  -exchange      EXHF   =         0.00000000
  -V(xc)+E(xc)   XCENC  =       443.98359244
  PAW double counting   =    107110.93911236  -106817.45313528
  entropy T*S    EENTRO =        -0.00000000
  eigenvalues    EBANDS =     -2652.80425282
  atomic energy  EATOM  =      8415.03548706
  ---------------------------------------------------
  free energy    TOTEN  =      -417.39460728 eV

  energy without entropy =     -417.39460728  energy(sigma->0) =     -417.39460728


--------------------------------------------------------------------------------------------------------




--------------------------------------- Iteration      1(  16)  ---------------------------------------


    POTLOK:  cpu time    4.1966: real time    4.2336
    SETDIJ:  cpu time    0.0543: real time    0.0546
    TRIAL :  cpu time    1.1521: real time    1.1652
    CORREC:  cpu time    4.6803: real time    4.7237
    CHARGE:  cpu time    0.1790: real time    0.1809
    --------------------------------------------
      LOOP:  cpu time   10.3181: real time   10.4161

 eigenvalue-minimisations  :     0
 total energy-change (2. order) :-0.5302621E-03  (-0.2707096E-03)
 number of electron     216.0000000 magnetization 
 augmentation part       -0.4130616 magnetization 

 Free energy of the ion-electron system (eV)
  ---------------------------------------------------
  alpha Z        PSCENC =        47.94900195
  Ewald energy   TEWEN  =     40970.05347293
  -Hartree energ DENC   =    -47935.51349246
  -exchange      EXHF   =         0.00000000
  -V(xc)+E(xc)   XCENC  =       443.99725327
  PAW double counting   =    107054.65454555  -106761.17049576
  entropy T*S    EENTRO =        -0.00000000
  eigenvalues    EBANDS =     -2652.40091010
  atomic energy  EATOM  =      8415.03548706
  ---------------------------------------------------
  free energy    TOTEN  =      -417.39513755 eV

  energy without entropy =     -417.39513755  energy(sigma->0) =     -417.39513755


--------------------------------------------------------------------------------------------------------




--------------------------------------- Iteration      1(  17)  ---------------------------------------


    POTLOK:  cpu time    4.2108: real time    4.2412
    SETDIJ:  cpu time    0.0543: real time    0.0545
    TRIAL :  cpu time    1.1546: real time    1.1658
    CORREC:  cpu time    4.7271: real time    4.7656
    CHARGE:  cpu time    0.1786: real time    0.1807
    --------------------------------------------
      LOOP:  cpu time   10.3969: real time   10.4802

 eigenvalue-minimisations  :     0
 total energy-change (2. order) :-0.2721836E-03  (-0.1113028E-03)
 number of electron     216.0000000 magnetization 
 augmentation part       -0.4131176 magnetization 

 Free energy of the ion-electron system (eV)
  ---------------------------------------------------
  alpha Z        PSCENC =        47.94900195
  Ewald energy   TEWEN  =     40970.05347293
  -Hartree energ DENC   =    -47935.66756445
  -exchange      EXHF   =         0.00000000
  -V(xc)+E(xc)   XCENC  =       443.99866582
  PAW double counting   =    106998.54967049  -106705.06499406
  entropy T*S    EENTRO =        -0.00000000
  eigenvalues    EBANDS =     -2652.24914947
  atomic energy  EATOM  =      8415.03548706
  ---------------------------------------------------
  free energy    TOTEN  =      -417.39540973 eV

  energy without entropy =     -417.39540973  energy(sigma->0) =     -417.39540973


--------------------------------------------------------------------------------------------------------




--------------------------------------- Iteration      1(  18)  ---------------------------------------


    POTLOK:  cpu time    4.2052: real time    4.2371
    SETDIJ:  cpu time    0.0543: real time    0.0545
    TRIAL :  cpu time    1.1538: real time    1.1654
    CORREC:  cpu time    4.6765: real time    4.7178
    CHARGE:  cpu time    0.1795: real time    0.1812
    --------------------------------------------
      LOOP:  cpu time   10.3089: real time   10.3964

 eigenvalue-minimisations  :     0
 total energy-change (2. order) :-0.1113940E-03  (-0.4323411E-04)
 number of electron     216.0000000 magnetization 
 augmentation part       -0.4133023 magnetization 

 Free energy of the ion-electron system (eV)
  ---------------------------------------------------
  alpha Z        PSCENC =        47.94900195
  Ewald energy   TEWEN  =     40970.05347293
  -Hartree energ DENC   =    -47935.72289608
  -exchange      EXHF   =         0.00000000
  -V(xc)+E(xc)   XCENC  =       444.00120858
  PAW double counting   =    106986.08562944  -106692.60054830
  entropy T*S    EENTRO =        -0.00000000
  eigenvalues    EBANDS =     -2652.19687671
  atomic energy  EATOM  =      8415.03548706
  ---------------------------------------------------
  free energy    TOTEN  =      -417.39552112 eV

  energy without entropy =     -417.39552112  energy(sigma->0) =     -417.39552112


--------------------------------------------------------------------------------------------------------




--------------------------------------- Iteration      1(  19)  ---------------------------------------


    POTLOK:  cpu time    4.2044: real time    4.2362
    SETDIJ:  cpu time    0.0542: real time    0.0545
    TRIAL :  cpu time    1.1535: real time    1.1643
    CORREC:  cpu time    4.7011: real time    4.7375
    CHARGE:  cpu time    0.1791: real time    0.1809
    --------------------------------------------
      LOOP:  cpu time   10.3596: real time   10.4435

 eigenvalue-minimisations  :     0
 total energy-change (2. order) :-0.4288161E-04  (-0.1746598E-04)
 number of electron     216.0000000 magnetization 
 augmentation part       -0.4133997 magnetization 

 Free energy of the ion-electron system (eV)
  ---------------------------------------------------
  alpha Z        PSCENC =        47.94900195
  Ewald energy   TEWEN  =     40970.05347293
  -Hartree energ DENC   =    -47935.70189463
  -exchange      EXHF   =         0.00000000
  -V(xc)+E(xc)   XCENC  =       444.00008218
  PAW double counting   =    106997.19807172  -106703.71218876
  entropy T*S    EENTRO =        -0.00000000
  eigenvalues    EBANDS =     -2652.21759646
  atomic energy  EATOM  =      8415.03548706
  ---------------------------------------------------
  free energy    TOTEN  =      -417.39556400 eV

  energy without entropy =     -417.39556400  energy(sigma->0) =     -417.39556400


--------------------------------------------------------------------------------------------------------




--------------------------------------- Iteration      1(  20)  ---------------------------------------


    POTLOK:  cpu time    4.2152: real time    4.2471
    SETDIJ:  cpu time    0.0543: real time    0.0545
    TRIAL :  cpu time    1.1729: real time    1.1851
    CORREC:  cpu time    4.6808: real time    4.7168
    CHARGE:  cpu time    0.1786: real time    0.1805
    --------------------------------------------
      LOOP:  cpu time   10.3073: real time   10.4104

 eigenvalue-minimisations  :     0
 total energy-change (2. order) :-0.1699915E-04  (-0.8727899E-05)
 number of electron     216.0000000 magnetization 
 augmentation part       -0.4134448 magnetization 

 Free energy of the ion-electron system (eV)
  ---------------------------------------------------
  alpha Z        PSCENC =        47.94900195
  Ewald energy   TEWEN  =     40970.05347293
  -Hartree energ DENC   =    -47935.73486036
  -exchange      EXHF   =         0.00000000
  -V(xc)+E(xc)   XCENC  =       444.00126473
  PAW double counting   =    107008.50812181  -106715.02221294
  entropy T*S    EENTRO =        -0.00000000
  eigenvalues    EBANDS =     -2652.18585619
  atomic energy  EATOM  =      8415.03548706
  ---------------------------------------------------
  free energy    TOTEN  =      -417.39558100 eV

  energy without entropy =     -417.39558100  energy(sigma->0) =     -417.39558100


--------------------------------------------------------------------------------------------------------




--------------------------------------- Iteration      1(  21)  ---------------------------------------


    POTLOK:  cpu time    4.2319: real time    4.2617
    SETDIJ:  cpu time    0.0542: real time    0.0544
    TRIAL :  cpu time    1.1554: real time    1.1660
    CORREC:  cpu time    4.7006: real time    4.7383
    CHARGE:  cpu time    0.1792: real time    0.1809
    --------------------------------------------
      LOOP:  cpu time   10.3660: real time   10.4572

 eigenvalue-minimisations  :     0
 total energy-change (2. order) :-0.8530405E-05  (-0.4308733E-05)
 number of electron     216.0000000 magnetization 
 augmentation part       -0.4134268 magnetization 

 Free energy of the ion-electron system (eV)
  ---------------------------------------------------
  alpha Z        PSCENC =        47.94900195
  Ewald energy   TEWEN  =     40970.05347293
  -Hartree energ DENC   =    -47935.70103012
  -exchange      EXHF   =         0.00000000
  -V(xc)+E(xc)   XCENC  =       443.99984953
  PAW double counting   =    107013.19436362  -106719.70837202
  entropy T*S    EENTRO =        -0.00000000
  eigenvalues    EBANDS =     -2652.21836248
  atomic energy  EATOM  =      8415.03548706
  ---------------------------------------------------
  free energy    TOTEN  =      -417.39558953 eV

  energy without entropy =     -417.39558953  energy(sigma->0) =     -417.39558953


--------------------------------------------------------------------------------------------------------




--------------------------------------- Iteration      1(  22)  ---------------------------------------


    POTLOK:  cpu time    4.1916: real time    4.2221
    SETDIJ:  cpu time    0.0542: real time    0.0544
    TRIAL :  cpu time    1.1538: real time    1.1644
    CORREC:  cpu time    4.6911: real time    4.7265
    CHARGE:  cpu time    0.1783: real time    0.1801
    --------------------------------------------
      LOOP:  cpu time   10.3741: real time   10.4629

 eigenvalue-minimisations  :     0
 total energy-change (2. order) :-0.4285059E-05  (-0.2024324E-05)
 number of electron     216.0000000 magnetization 
 augmentation part       -0.4134086 magnetization 

 Free energy of the ion-electron system (eV)
  ---------------------------------------------------
  alpha Z        PSCENC =        47.94900195
  Ewald energy   TEWEN  =     40970.05347293
  -Hartree energ DENC   =    -47935.69464252
  -exchange      EXHF   =         0.00000000
  -V(xc)+E(xc)   XCENC  =       443.99987553
  PAW double counting   =    107012.59701612  -106719.11121492
  entropy T*S    EENTRO =        -0.00000000
  eigenvalues    EBANDS =     -2652.22458997
  atomic energy  EATOM  =      8415.03548706
  ---------------------------------------------------
  free energy    TOTEN  =      -417.39559382 eV

  energy without entropy =     -417.39559382  energy(sigma->0) =     -417.39559382


--------------------------------------------------------------------------------------------------------




--------------------------------------- Iteration      1(  23)  ---------------------------------------


    POTLOK:  cpu time    4.2459: real time    4.2785
    SETDIJ:  cpu time    0.0541: real time    0.0543
    TRIAL :  cpu time    1.1528: real time    1.1637
    CORREC:  cpu time    4.7036: real time    4.7403
    CHARGE:  cpu time    0.1788: real time    0.1820
    --------------------------------------------
      LOOP:  cpu time   10.3823: real time   10.5107

 eigenvalue-minimisations  :     0
 total energy-change (2. order) :-0.2042623E-05  (-0.7919315E-06)
 number of electron     216.0000000 magnetization 
 augmentation part       -0.4134006 magnetization 

 Free energy of the ion-electron system (eV)
  ---------------------------------------------------
  alpha Z        PSCENC =        47.94900195
  Ewald energy   TEWEN  =     40970.05347293
  -Hartree energ DENC   =    -47935.68800261
  -exchange      EXHF   =         0.00000000
  -V(xc)+E(xc)   XCENC  =       443.99972941
  PAW double counting   =    107011.11305564  -106717.62730852
  entropy T*S    EENTRO =        -0.00000000
  eigenvalues    EBANDS =     -2652.23103173
  atomic energy  EATOM  =      8415.03548706
  ---------------------------------------------------
  free energy    TOTEN  =      -417.39559586 eV

  energy without entropy =     -417.39559586  energy(sigma->0) =     -417.39559586


--------------------------------------------------------------------------------------------------------




--------------------------------------- Iteration      1(  24)  ---------------------------------------


    POTLOK:  cpu time    4.2178: real time    4.2481
    SETDIJ:  cpu time    0.0543: real time    0.0545
    TRIAL :  cpu time    1.1655: real time    1.1764
    CORREC:  cpu time    4.6897: real time    4.7248
    CHARGE:  cpu time    0.1791: real time    0.1810
    --------------------------------------------
      LOOP:  cpu time   10.3748: real time   10.4586

 eigenvalue-minimisations  :     0
 total energy-change (2. order) :-0.8111383E-06  (-0.3325700E-06)
 number of electron     216.0000000 magnetization 
 augmentation part       -0.4133969 magnetization 

 Free energy of the ion-electron system (eV)
  ---------------------------------------------------
  alpha Z        PSCENC =        47.94900195
  Ewald energy   TEWEN  =     40970.05347293
  -Hartree energ DENC   =    -47935.68379537
  -exchange      EXHF   =         0.00000000
  -V(xc)+E(xc)   XCENC  =       443.99969867
  PAW double counting   =    107010.64928277  -106717.16352372
  entropy T*S    EENTRO =        -0.00000000
  eigenvalues    EBANDS =     -2652.23522097
  atomic energy  EATOM  =      8415.03548706
  ---------------------------------------------------
  free energy    TOTEN  =      -417.39559667 eV

  energy without entropy =     -417.39559667  energy(sigma->0) =     -417.39559667


--------------------------------------------------------------------------------------------------------




--------------------------------------- Iteration      1(  25)  ---------------------------------------


    POTLOK:  cpu time    4.2117: real time    4.2414
    SETDIJ:  cpu time    0.0543: real time    0.0545
    TRIAL :  cpu time    1.1533: real time    1.1638
    CORREC:  cpu time    4.7032: real time    4.7401
    CHARGE:  cpu time    0.1798: real time    0.1814
    --------------------------------------------
      LOOP:  cpu time   10.3284: real time   10.4118

 eigenvalue-minimisations  :     0
 total energy-change (2. order) :-0.3428868E-06  (-0.1534357E-06)
 number of electron     216.0000000 magnetization 
 augmentation part       -0.4133963 magnetization 

 Free energy of the ion-electron system (eV)
  ---------------------------------------------------
  alpha Z        PSCENC =        47.94900195
  Ewald energy   TEWEN  =     40970.05347293
  -Hartree energ DENC   =    -47935.68594914
  -exchange      EXHF   =         0.00000000
  -V(xc)+E(xc)   XCENC  =       443.99984311
  PAW double counting   =    107010.66903303  -106717.18326704
  entropy T*S    EENTRO =        -0.00000000
  eigenvalues    EBANDS =     -2652.23321892
  atomic energy  EATOM  =      8415.03548706
  ---------------------------------------------------
  free energy    TOTEN  =      -417.39559702 eV

  energy without entropy =     -417.39559702  energy(sigma->0) =     -417.39559702


--------------------------------------------------------------------------------------------------------




--------------------------------------- Iteration      1(  26)  ---------------------------------------


    POTLOK:  cpu time    4.2083: real time    4.2435
    SETDIJ:  cpu time    0.0542: real time    0.0545
    TRIAL :  cpu time    1.1523: real time    1.1690
    CORREC:  cpu time    4.6698: real time    4.7234
    CHARGE:  cpu time    0.1790: real time    0.1808
    --------------------------------------------
      LOOP:  cpu time   10.3038: real time   10.4512

 eigenvalue-minimisations  :     0
 total energy-change (2. order) :-0.1590233E-06  (-0.7940660E-07)
 number of electron     216.0000000 magnetization 
 augmentation part       -0.4133933 magnetization 

 Free energy of the ion-electron system (eV)
  ---------------------------------------------------
  alpha Z        PSCENC =        47.94900195
  Ewald energy   TEWEN  =     40970.05347293
  -Hartree energ DENC   =    -47935.68596354
  -exchange      EXHF   =         0.00000000
  -V(xc)+E(xc)   XCENC  =       443.99979202
  PAW double counting   =    107010.65826972  -106717.17247828
  entropy T*S    EENTRO =        -0.00000000
  eigenvalues    EBANDS =     -2652.23317903
  atomic energy  EATOM  =      8415.03548706
  ---------------------------------------------------
  free energy    TOTEN  =      -417.39559717 eV

  energy without entropy =     -417.39559717  energy(sigma->0) =     -417.39559717


--------------------------------------------------------------------------------------------------------




--------------------------------------- Iteration      1(  27)  ---------------------------------------


    POTLOK:  cpu time    4.2030: real time    4.2338
    SETDIJ:  cpu time    0.0542: real time    0.0544
    TRIAL :  cpu time    1.1529: real time    1.1641
    CORREC:  cpu time    4.6691: real time    4.7056
    EDDIAG:  cpu time    0.4343: real time    0.4389
    CHARGE:  cpu time    0.1790: real time    0.1808
    --------------------------------------------
      LOOP:  cpu time   10.7064: real time   10.8006

 eigenvalue-minimisations  :     0
 total energy-change (2. order) :-0.8191273E-07  (-0.3967210E-07)
 number of electron     216.0000000 magnetization 
 augmentation part       -0.4133920 magnetization 

 Free energy of the ion-electron system (eV)
  ---------------------------------------------------
  alpha Z        PSCENC =        47.94900195
  Ewald energy   TEWEN  =     40970.05347293
  -Hartree energ DENC   =    -47935.68807499
  -exchange      EXHF   =         0.00000000
  -V(xc)+E(xc)   XCENC  =       443.99986412
  PAW double counting   =    107010.62747113  -106717.14169383
  entropy T*S    EENTRO =        -0.00000000
  eigenvalues    EBANDS =     -2652.23112563
  atomic energy  EATOM  =      8415.03548706
  ---------------------------------------------------
  free energy    TOTEN  =      -417.39559726 eV

  energy without entropy =     -417.39559726  energy(sigma->0) =     -417.39559726


--------------------------------------------------------------------------------------------------------


  average scaling for gradient   0.9396


 average (electrostatic) potential at core
  the test charge radii are     0.5770  0.5955
  (the norm of the test charge is              1.0000)
       1 -86.0244       2 -86.0240       3 -86.0243       4 -86.0248       5 -86.0235
       6 -86.0236       7 -86.0242       8 -86.0233       9 -86.0237      10 -86.0237
[...]
      21 -86.0233      22 -86.0234      23 -86.0251      24 -86.0250      25 -86.0235
      26 -86.0235      27 -86.0237      28 -86.0244      29 -86.0234      30 -86.0235
      31 -86.0245      32 -86.0241      33 -86.0236      34 -86.0236      35 -86.0237
      36 -86.0236      37 -86.0241      38 -86.0242      39 -86.0240      40 -86.0241
      41 -86.0240      42 -86.0240      43 -86.0240      44 -86.0243      45 -86.0235
      46 -86.0235      47 -86.0235      48 -86.0235      49 -86.0242      50 -86.0240
      51 -89.9141      52-120.4314      53-120.4308
 
 
 
 E-fermi :  -4.3686     XC(G=0):  -2.2900     alpha+bet : -1.6890

 Fermi energy:        -4.3685689568

 k-point     1 :       0.0000    0.0000    0.0000
  band No.  band energies     occupation 
      1     -27.6440      2.00000
      2     -26.6504      2.00000
      3     -22.4386      2.00000
      4     -21.5021      2.00000
      5     -21.5007      2.00000
      6     -21.5006      2.00000
      7     -21.5003      2.00000
      8     -21.5001      2.00000
      9     -21.4995      2.00000
     10     -19.6628      2.00000
     11     -19.6627      2.00000
     12     -19.6624      2.00000
     13     -19.6618      2.00000
     14     -19.6613      2.00000
     15     -19.6611      2.00000
     16     -18.7677      2.00000
     17     -18.7675      2.00000
     18     -18.7670      2.00000
     19     -18.7669      2.00000
     20     -18.7661      2.00000
     21     -18.7658      2.00000
     22     -16.6068      2.00000
     23     -16.6064      2.00000
     24     -16.6057      2.00000
     25     -16.6056      2.00000
     26     -16.6050      2.00000
     27     -16.6049      2.00000
     28     -15.6280      2.00000
     29     -15.6280      2.00000
     30     -15.6269      2.00000
     31     -15.6268      2.00000
     32     -15.6264      2.00000
     33     -15.6263      2.00000
     34     -14.2790      2.00000
     35     -14.2789      2.00000
     36     -14.2783      2.00000
     37     -14.2782      2.00000
     38     -14.2781      2.00000
     39     -14.2778      2.00000
     40     -12.4872      2.00000
     41     -11.9030      2.00000
     42     -11.9027      2.00000
     43     -11.9023      2.00000
     44     -11.9022      2.00000
     45     -11.9011      2.00000
     46     -11.9008      2.00000
     47     -11.8101      2.00000
     48     -11.8100      2.00000
     49     -11.8093      2.00000
     50     -11.8093      2.00000
     51     -11.8091      2.00000
     52     -11.8090      2.00000
     53     -11.3293      2.00000
     54     -11.2666      2.00000
     55     -11.2665      2.00000
     56     -10.5956      2.00000
     57     -10.4400      2.00000
     58     -10.4399      2.00000
     59     -10.4383      2.00000
     60     -10.4380      2.00000
     61     -10.4378      2.00000
     62     -10.4377      2.00000
     63      -9.4794      2.00000
     64      -9.4782      2.00000
     65      -9.4780      2.00000
     66      -9.4779      2.00000
     67      -9.4778      2.00000
     68      -9.4774      2.00000
     69      -9.1761      2.00000
     70      -9.1748      2.00000
     71      -9.1745      2.00000
     72      -9.1744      2.00000
     73      -9.1742      2.00000
     74      -9.1738      2.00000
     75      -9.1165      2.00000
     76      -9.1162      2.00000
     77      -9.1154      2.00000
     78      -9.1153      2.00000
     79      -9.1152      2.00000
     80      -9.1144      2.00000
     81      -7.7297      2.00000
     82      -7.7296      2.00000
     83      -7.5266      2.00000
     84      -7.5249      2.00000
     85      -7.5247      2.00000
     86      -7.5244      2.00000
     87      -7.5235      2.00000
     88      -7.5234      2.00000
     89      -7.3485      2.00000
     90      -7.3482      2.00000
     91      -7.3481      2.00000
     92      -7.3476      2.00000
     93      -7.3472      2.00000
     94      -7.3470      2.00000
     95      -6.4511      2.00000
     96      -6.4510      2.00000
     97      -6.4507      2.00000
     98      -6.4506      2.00000
     99      -6.4499      2.00000
    100      -6.4497      2.00000
    101      -6.0469      2.00000
    102      -6.0447      2.00000
    103      -4.4669      2.00000
    104      -4.4664      2.00000
    105      -4.4660      2.00000
    106      -4.4659      2.00000
    107      -4.4654      2.00000
    108      -4.4654      2.00000
    109      -1.6663      0.00000
    110      -1.6662      0.00000
    111      -1.6659      0.00000
    112      -1.6658      0.00000
    113      -1.6651      0.00000
    114      -1.6648      0.00000
    115      -0.1438      0.00000
    116       0.1471      0.00000
    117       0.1948      0.00000
    118       0.1951      0.00000
    119       0.1954      0.00000
    120       0.1955      0.00000
    121       0.1959      0.00000
    122       0.1970      0.00000
    123       0.6633      0.00000
    124       1.1386      0.00000
    125       1.1468      0.00000
    126       1.1490      0.00000
    127       1.1557      0.00000
    128       1.1574      0.00000
    129       1.1583      0.00000
    130       1.3433      0.00000
    131       1.4733      0.00000
    132       1.5612      0.00000
    133       1.7623      0.00000
    134       1.8076      0.00000
    135       1.8613      0.00000
    136       1.9335      0.00000


--------------------------------------------------------------------------------------------------------


 soft charge-density along one line, spin component           1
         0         1         2         3         4         5         6         7         8         9
 total charge-density along one line
 
 pseudopotential strength for first ion, spin component:           1
 12.721  21.408   0.000   0.000   0.000   0.000   0.000   0.000
 21.408  36.024   0.000   0.000   0.000   0.000   0.000   0.000
  0.000   0.000  -3.196  -0.000   0.000  -5.729  -0.000   0.000
  0.000   0.000  -0.000  -3.199  -0.000  -0.000  -5.733  -0.000
  0.000   0.000   0.000  -0.000  -3.196   0.000  -0.000  -5.729
  0.000   0.000  -5.729  -0.000   0.000 -10.246  -0.000   0.000
  0.000   0.000  -0.000  -5.733  -0.000  -0.000 -10.253  -0.000
  0.000   0.000   0.000  -0.000  -5.729   0.000  -0.000 -10.246
 total augmentation occupancy for first ion, spin component:           1
  7.653  -2.660  -0.000  -0.002  -0.000   0.000   0.001   0.000
 -2.660   0.962   0.000   0.001   0.000  -0.000  -0.000  -0.000
 -0.000   0.000   7.069  -0.008   0.000  -2.370   0.003  -0.000
 -0.002   0.001  -0.008   3.114  -0.000   0.003  -0.813   0.000
 -0.000   0.000   0.000  -0.000   7.068  -0.000   0.000  -2.370
  0.000  -0.000  -2.370   0.003  -0.000   0.809  -0.001   0.000
  0.001  -0.000   0.003  -0.813   0.000  -0.001   0.219  -0.000
  0.000  -0.000  -0.000   0.000  -2.370   0.000  -0.000   0.809


------------------------ aborting loop because EDIFF is reached ----------------------------------------


    FORLOC:  cpu time    0.0687: real time    0.0693
    FORNL :  cpu time    0.8426: real time    0.8473
    FORCOR:  cpu time    4.3370: real time    4.3698
    OFIELD:  cpu time    0.0015: real time    0.0015

 VOLUME and BASIS-vectors are now :
 -----------------------------------------------------------------------------
  energy-cutoff  :     1000.00
  volume of cell :     3288.85
      direct lattice vectors                 reciprocal lattice vectors
    12.325000000  0.000000000  0.000000000     0.081135903  0.046843835  0.000000000
    -6.162500000 10.673763102  0.000000000     0.000000000  0.093687670  0.000000000
     0.000000000  0.000000000 25.000000000     0.000000000  0.000000000  0.040000000

  length of vectors
    12.325000000 12.325000000 25.000000000     0.093687670  0.093687670  0.040000000


 FORCES acting on ions:
    Electron-Ion                     Ewald-Force                    Non-Local-Force
 -----------------------------------------------------------------------------------------------
   0.466E+00 0.422E+00 0.119E+02   -.467E+00 -.423E+00 -.119E+02   0.408E-02 -.628E-03 0.583E-02
   0.636E+00 0.380E+00 0.128E+02   -.639E+00 -.378E+00 -.128E+02   0.238E-02 -.292E-02 -.567E-02
   0.251E+00 0.691E+00 0.127E+02   -.253E+00 -.691E+00 -.127E+02   -.438E-04 0.111E-01 -.184E-02
   0.316E+00 0.468E+00 0.147E+02   -.313E+00 -.468E+00 -.147E+02   0.113E-01 0.626E-03 -.165E-01
   0.543E+00 0.152E+00 0.124E+02   -.541E+00 -.153E+00 -.124E+02   -.102E-02 -.503E-02 0.403E-02
   0.555E+00 -.128E+00 0.126E+02   -.558E+00 0.129E+00 -.126E+02   -.650E-02 0.360E-02 -.174E-02
   0.592E+00 0.302E+00 0.148E+02   -.593E+00 -.303E+00 -.148E+02   0.111E-01 -.187E-01 -.725E-02
   0.630E+00 -.177E+00 0.160E+02   -.635E+00 0.179E+00 -.160E+02   -.785E-02 -.480E-02 -.627E-02
   -.290E+00 0.714E+00 0.131E+02   0.293E+00 -.716E+00 -.131E+02   0.605E-03 -.135E-01 -.489E-02
   -.340E+00 0.313E+00 0.151E+02   0.340E+00 -.314E+00 -.151E+02   -.250E-01 0.143E-01 0.114E-02
   0.144E+00 -.143E+00 0.118E+02   -.141E+00 0.143E+00 -.118E+02   0.397E-02 -.273E-02 0.108E-02
   0.152E+00 -.122E+00 0.116E+02   -.153E+00 0.123E+00 -.116E+02   -.626E-02 0.320E-02 0.684E-02
   0.127E+00 -.471E+00 0.168E+02   -.126E+00 0.473E+00 -.168E+02   0.258E-01 -.700E-02 -.366E-02
   0.878E-01 -.777E+00 0.143E+02   -.911E-01 0.779E+00 -.143E+02   0.304E-02 0.731E-02 -.159E-01
   -.520E+00 0.308E+00 0.120E+02   0.522E+00 -.309E+00 -.120E+02   0.756E-02 -.413E-02 0.838E-02
   -.636E+00 0.158E+00 0.121E+02   0.635E+00 -.158E+00 -.121E+02   -.110E-02 0.480E-02 -.393E-02
   -.862E-01 -.396E-01 0.112E+02   0.887E-01 0.380E-01 -.112E+02   0.417E-03 0.117E-03 0.235E-02
   0.461E-01 0.310E+00 0.113E+02   -.459E-01 -.311E+00 -.113E+02   -.248E-02 0.123E-02 0.927E-02
   -.144E+00 -.723E+00 0.130E+02   0.144E+00 0.724E+00 -.130E+02   0.550E-02 -.119E-02 0.744E-04
   -.882E-01 -.454E+00 0.119E+02   0.857E-01 0.454E+00 -.119E+02   -.571E-03 -.556E-03 -.422E-03
   0.701E+00 -.285E+00 0.138E+02   -.701E+00 0.285E+00 -.137E+02   -.227E-02 -.176E-02 -.155E-01
   0.516E+00 -.408E+00 0.130E+02   -.518E+00 0.409E+00 -.130E+02   -.702E-02 0.549E-02 -.875E-03
   -.109E+00 0.180E+00 0.165E+02   0.105E+00 -.178E+00 -.165E+02   -.993E-02 0.102E-01 -.165E-02
   -.178E+00 -.287E+00 0.165E+02   0.181E+00 0.285E+00 -.165E+02   0.118E-01 -.143E-01 -.129E-01
   0.272E+00 -.990E-01 0.119E+02   -.271E+00 0.977E-01 -.119E+02   0.384E-02 -.271E-02 -.197E-02
   0.921E-01 0.226E+00 0.117E+02   -.925E-01 -.225E+00 -.117E+02   -.463E-02 0.304E-02 0.654E-02
   -.751E+00 0.390E-01 0.135E+02   0.755E+00 -.408E-01 -.135E+02   0.127E-01 0.735E-02 -.253E-02
   -.668E+00 -.295E+00 0.129E+02   0.669E+00 0.295E+00 -.129E+02   -.781E-02 0.881E-02 0.143E-03
   0.262E+00 -.578E+00 0.131E+02   -.261E+00 0.578E+00 -.131E+02   0.375E-02 0.255E-02 -.567E-02
   0.299E-01 -.252E+00 0.121E+02   -.319E-01 0.253E+00 -.121E+02   -.500E-02 0.243E-02 -.104E-02
   -.479E+00 -.460E+00 0.138E+02   0.477E+00 0.461E+00 -.138E+02   -.113E-01 -.774E-02 -.141E-01
   -.361E+00 -.698E+00 0.127E+02   0.362E+00 0.697E+00 -.127E+02   0.561E-03 -.498E-03 0.120E-02
   0.196E-01 0.166E+00 0.115E+02   -.191E-01 -.167E+00 -.115E+02   0.453E-02 -.447E-02 0.780E-02
   0.869E-01 0.133E+00 0.116E+02   -.896E-01 -.132E+00 -.116E+02   -.250E-02 0.468E-02 -.135E-03
   -.337E+00 0.662E-01 0.117E+02   0.340E+00 -.672E-01 -.118E+02   0.429E-02 -.252E-02 0.695E-02
   -.292E+00 -.145E+00 0.117E+02   0.291E+00 0.146E+00 -.117E+02   -.336E-02 0.209E-02 0.457E-02
   -.542E+00 -.311E+00 0.118E+02   0.545E+00 0.309E+00 -.118E+02   -.916E-04 0.824E-03 0.346E-02
   -.365E+00 -.299E+00 0.115E+02   0.366E+00 0.300E+00 -.115E+02   -.328E-02 0.119E-02 0.884E-02
   -.341E+00 -.424E+00 0.117E+02   0.340E+00 0.425E+00 -.117E+02   -.253E-02 0.386E-03 0.428E-02
   -.486E-01 -.127E+00 0.114E+02   0.496E-01 0.126E+00 -.114E+02   0.171E-02 0.786E-03 0.700E-02
   0.133E+00 0.322E+00 0.113E+02   -.134E+00 -.322E+00 -.113E+02   -.377E-02 0.134E-02 0.654E-02
   0.397E+00 0.578E+00 0.118E+02   -.395E+00 -.579E+00 -.118E+02   -.106E-02 -.115E-02 0.695E-02
   0.540E-01 0.523E+00 0.115E+02   -.513E-01 -.525E+00 -.115E+02   0.398E-03 0.132E-03 0.259E-02
   0.143E-01 0.742E+00 0.123E+02   -.140E-01 -.743E+00 -.124E+02   -.741E-02 0.112E-02 0.487E-02
   -.106E+00 0.189E+00 0.118E+02   0.108E+00 -.191E+00 -.118E+02   0.425E-02 -.319E-02 0.266E-02
   -.349E+00 0.471E+00 0.121E+02   0.349E+00 -.471E+00 -.121E+02   -.546E-02 -.213E-03 -.322E-03
   -.123E+00 -.238E+00 0.119E+02   0.124E+00 0.237E+00 -.119E+02   0.564E-02 -.107E-02 0.673E-02
   -.217E+00 0.714E-01 0.115E+02   0.215E+00 -.707E-01 -.115E+02   -.384E-02 0.327E-02 -.192E-02
   0.112E-01 -.139E+00 0.115E+02   -.111E-01 0.139E+00 -.115E+02   0.380E-02 -.290E-02 0.569E-02
   0.225E+00 0.165E+00 0.114E+02   -.227E+00 -.164E+00 -.114E+02   -.901E-03 0.187E-02 0.342E-02
   -.396E-02 0.292E-01 -.157E+03   -.336E-03 -.254E-01 0.158E+03   -.288E-02 0.187E-02 -.192E-02
   -.229E+03 0.156E+03 -.249E+03   0.279E+03 -.190E+03 0.252E+03   -.512E+02 0.348E+02 -.343E+01
   0.229E+03 -.156E+03 -.227E+03   -.279E+03 0.190E+03 0.224E+03   0.512E+02 -.348E+02 0.309E+01
 -----------------------------------------------------------------------------------------------
   -.750E-02 0.140E-01 0.343E+00   0.114E-12 -.853E-13 0.284E-13   0.741E-02 -.141E-01 -.344E+00
 
 
 POSITION                                       TOTAL-FORCE (eV/Angst)
 -----------------------------------------------------------------------------------
     11.98348      0.00342      0.01417         0.003279     -0.001696     -0.000991
     -0.34154      1.42665      0.01100        -0.000537     -0.000068     -0.003333
      2.12355      0.00315      0.01249        -0.001784      0.010961     -0.006290
      2.12326      1.42653      0.00641         0.013584      0.001311     -0.008341
     10.75099      2.13819      0.01213         0.000455     -0.005782     -0.000121
     -1.57382      3.56123      0.01110        -0.008995      0.004721     -0.001399
      0.89078      2.13854      0.00548         0.009781     -0.019257      0.002264
      0.89099      3.56147      0.00181        -0.011748     -0.002535      0.011419
      4.58864      0.00346      0.01135         0.003561     -0.015766     -0.003492
      4.58894      1.42623      0.00646        -0.023876      0.013489      0.013508
      9.51854      4.27281      0.01369         0.006572     -0.003098      0.000213
     -2.80632      5.69591      0.01434        -0.006627      0.003424      0.000697
      2.12300      4.27302      0.00000         0.025369     -0.005189      0.019916
      2.12335      5.69594      0.00581        -0.000456      0.009052     -0.002622
      7.05344      0.00333      0.01399         0.009402     -0.005289     -0.000421
      7.05353      1.42635      0.01368        -0.001816      0.005038     -0.003639
      8.28610      6.40752      0.01601         0.002875     -0.001447     -0.000759
     -4.03885      7.83070      0.01636        -0.002266      0.000891     -0.000120
      3.35586      6.40753      0.01007         0.005621      0.000463     -0.001260
      3.35599      7.83072      0.01320        -0.003131     -0.000029     -0.000638
     -0.34146      4.27290      0.00723        -0.001724     -0.001551     -0.004407
     -0.34138      5.69591      0.00946        -0.009202      0.006541     -0.001093
      3.35624      2.13791      0.00222        -0.013761      0.012094      0.015435
      3.35573      3.56155      0.00139         0.013737     -0.016125      0.008097
     -1.57395      6.40758      0.01311         0.005391     -0.003945     -0.000545
     -1.57385      7.83068      0.01438        -0.004922      0.003804     -0.000000
      5.82093      2.13784      0.01033         0.015955      0.005230     -0.002992
      5.82114      3.56097      0.01156        -0.006528      0.008665     -0.003621
      0.89092      6.40755      0.00907         0.004698      0.002272     -0.002207
      0.89106      7.83068      0.01235        -0.006835      0.003904      0.000401
      4.58871      4.27293      0.00850        -0.013137     -0.006564     -0.010718
      4.58852      5.69606      0.01149         0.002004     -0.001289     -0.003945
      9.51845      0.00337      0.01490         0.004851     -0.004725      0.000116
      9.51855      1.42644      0.01438        -0.005131      0.005453     -0.000260
      8.28593      2.13803      0.01453         0.006791     -0.003384      0.000590
      8.28613      3.56115      0.01464        -0.004435      0.002256     -0.000025
      7.05356      4.27269      0.01457         0.002526     -0.001108     -0.000585
      7.05362      5.69588      0.01553        -0.002552      0.001572     -0.000105
      5.82112      6.40755      0.01489        -0.003025      0.001576     -0.000036
      5.82102      7.83073      0.01579         0.002753      0.000252     -0.000321
      7.05363      8.54227      0.01631        -0.004704      0.001321      0.001073
     -5.27149      9.96549      0.01495         0.000224     -0.001985     -0.002137
     -2.80638      8.54234      0.01558         0.003093     -0.001300     -0.001140
     -2.80627      9.96553      0.01362        -0.006934     -0.000020     -0.003757
     -0.34149      8.54239      0.01378         0.005810     -0.004936      0.000250
     -0.34138      9.96550      0.01354        -0.006013     -0.000002     -0.001170
      2.12343      8.54232      0.01336         0.005966     -0.001553      0.000687
      2.12354      9.96544      0.01469        -0.005143      0.003821     -0.001782
      4.58846      8.54235      0.01505         0.003751     -0.002807      0.000989
      4.58853      9.96550      0.01517        -0.002697      0.003349      0.000145
      3.04930      2.68154      8.90899        -0.007034      0.005667      0.033235
      4.02070      2.02068      8.97341        -0.557425      0.378868     -0.053081
      2.07767      3.34267      8.84953         0.564386     -0.384540      0.018317
 -----------------------------------------------------------------------------------
    total drift:                               -0.000096     -0.000066     -0.001463


--------------------------------------------------------------------------------------------------------



  FREE ENERGIE OF THE ION-ELECTRON SYSTEM (eV)
  ---------------------------------------------------
  free  energy   TOTEN  =      -417.39559726 eV

  energy  without entropy=     -417.39559726  energy(sigma->0) =     -417.39559726
 


--------------------------------------------------------------------------------------------------------


    POTLOK:  cpu time    4.2640: real time    4.2994


--------------------------------------------------------------------------------------------------------


 writing wavefunctions
     LOOP+:  cpu time  284.4003: real time  287.4488
    4ORBIT:  cpu time    0.0001: real time    0.0001

 total amount of memory used by VASP MPI-rank0   100580. kBytes
=======================================================================

   base      :      30000. kBytes
   nonl-proj :       8229. kBytes
   fftplans  :      18352. kBytes
   grid      :      30208. kBytes
   one-center:          6. kBytes
   wavefun   :      13785. kBytes
 
  
  
 General timing and accounting informations for this job:
 ========================================================
  
                  Total CPU time used (sec):      326.447
                            User time (sec):      301.407
                          System time (sec):       25.040
                         Elapsed time (sec):      330.776
  
                   Maximum memory used (kb):      820548.
                   Average memory used (kb):          N/A
  
                          Minor page faults:       402616
                          Major page faults:           73
                 Voluntary context switches:         3716
