 vasp.6.2.1 16May21 (build Nov 06 2021 14:46:37) complex                        
  
 executed on             LinuxIFC date 2025.03.03  16:58:42
 running on  112 total cores
 distrk:  each k-point on  112 cores,    1 groups
 distr:  one band on NCORE=  28 cores,    4 groups


--------------------------------------------------------------------------------------------------------


 INCAR:
   ALGO = Conjugate
   NPAR = 4
   ISMEAR = 0
   SIGMA = 0.01
   PREC = Accurate
   EDIFF = 1E-7
   ENCUT = 1000
   ISIF = 0
   GGA = MK
   PARAM1 = 0.1234
   PARAM2 = 1.0000
   LUSE_VDW = .TRUE.
   AGGAC = 0.0000
   LASPH = .TRUE.
   SYMPREC = 1E-7

 POTCAR:    PAW_PBE C_h 06Feb2004                 
 POTCAR:    PAW_PBE O_h 06Feb2004                 
 -----------------------------------------------------------------------------
|                                                                             |
|           W    W    AA    RRRRR   N    N  II  N    N   GGGG   !!!           |
|           W    W   A  A   R    R  NN   N  II  NN   N  G    G  !!!           |
|           W    W  A    A  R    R  N N  N  II  N N  N  G       !!!           |
|           W WW W  AAAAAA  RRRRR   N  N N  II  N  N N  G  GGG   !            |
|           WW  WW  A    A  R   R   N   NN  II  N   NN  G    G                |
|           W    W  A    A  R    R  N    N  II  N    N   GGGG   !!!           |
|                                                                             |
|     For optimal performance we recommend to set                             |
|       NCORE = 2 up to number-of-cores-per-socket                            |
|     NCORE specifies how many cores store one orbital (NPAR=cpu/NCORE).      |
|     This setting can greatly improve the performance of VASP for DFT.       |
|     The default, NCORE=1 might be grossly inefficient on modern             |
|     multi-core architectures or massively parallel machines. Do your        |
|     own testing! More info at https://www.vasp.at/wiki/index.php/NCORE      |
|     Unfortunately you need to use the default for GW and RPA                |
|     calculations (for HF NCORE is supported but not extensively tested      |
|     yet).                                                                   |
|                                                                             |
 -----------------------------------------------------------------------------

 -----------------------------------------------------------------------------
|                                                                             |
|               ----> ADVICE to this user running VASP <----                  |
|                                                                             |
|     You have switched on vdW-DFT.                                           |
|     This routine was written and supplied by Jiri Klimes. We recommend      |
|     that you carefully read and cite the following publications:            |
|       J. Klimes, D.R. Bowler, A. Michelides                                 |
|          J. Phys.: Cond Matt. 22 022201 (2010)                              |
|       J. Klimes, D.R. Bowler, A. Michelides                                 |
|          Phys. Rev. B. 83, 195131 (2011)                                    |
|     and references therein.                                                 |
|                                                                             |
 -----------------------------------------------------------------------------

 POTCAR:    PAW_PBE C_h 06Feb2004                 
   VRHFIN =C: s2p2                                                                                  
   LEXCH  = PE                                                                                      
   EATOM  =   147.1560 eV,   10.8157 Ry                                                             
                                                                                                    
   TITEL  = PAW_PBE C_h 06Feb2004                                                                   
   LULTRA =        F    use ultrasoft PP ?                                                          
   IUNSCR =        1    unscreen: 0-lin 1-nonlin 2-no                                               
   RPACOR =    0.800    partial core radius                                                         
   POMASS =   12.011; ZVAL   =    4.000    mass and valenz                                          
   RCORE  =    1.100    outmost cutoff radius                                                       
   RWIGS  =    1.630; RWIGS  =    0.863    wigner-seitz radius (au A)                               
   ENMAX  =  700.000; ENMIN  =  500.000 eV                                                          
   ICORE  =        2    local potential                                                             
   LCOR   =        T    correct aug charges                                                         
   LPAW   =        T    paw PP                                                                      
   EAUG   =  946.768                                                                                
   DEXC   =    0.000                                                                                
   RMAX   =    1.128    core radius for proj-oper                                                   
   RAUG   =    1.300    factor for augmentation sphere                                              
   RDEP   =    1.162    radius for radial grids                                                     
   RDEPT  =    1.088    core radius for aug-charge                                                  
                                                                                                    
   Atomic configuration                                                                             
    4 entries                                                                                       
     n  l   j            E        occ.                                                              
     1  0  0.50      -273.3789   2.0000                                                             
     2  0  0.50       -13.7508   2.0000                                                             
     2  1  0.50        -5.2854   2.0000                                                             
     3  2  1.50        -5.4423   0.0000                                                             
   Description                                                                                      
     l       E           TYP  RCUT    TYP  RCUT                                                     
     0    -13.7508458     23  1.100                                                                 
     0     -8.2022199     23  1.100                                                                 
     1     -5.2854383     23  1.100                                                                 
     1      1.1560700     23  1.100                                                                 
     2     -5.4423304      7  1.100                                                                 
  local pseudopotential read in
  partial core-charges read in
  partial kinetic energy density read in
  atomic valenz-charges read in
  non local Contribution for L=           0  read in
    real space projection operators read in
  non local Contribution for L=           0  read in
    real space projection operators read in
  non local Contribution for L=           1  read in
    real space projection operators read in
  non local Contribution for L=           1  read in
    real space projection operators read in
    PAW grid and wavefunctions read in
 
   number of l-projection  operators is LMAX  =           4
   number of lm-projection operators is LMMAX =           8
 
 POTCAR:    PAW_PBE O_h 06Feb2004                 
   VRHFIN =O: s2p4                                                                                  
   LEXCH  = PE                                                                                      
   EATOM  =   432.3788 eV,   31.7789 Ry                                                             
                                                                                                    
   TITEL  = PAW_PBE O_h 06Feb2004                                                                   
   LULTRA =        F    use ultrasoft PP ?                                                          
   IUNSCR =        1    unscreen: 0-lin 1-nonlin 2-no                                               
   RPACOR =    0.800    partial core radius                                                         
   POMASS =   16.000; ZVAL   =    6.000    mass and valenz                                          
   RCORE  =    1.100    outmost cutoff radius                                                       
   RWIGS  =    1.400; RWIGS  =    0.741    wigner-seitz radius (au A)                               
   ENMAX  =  700.000; ENMIN  =  500.000 eV                                                          
   ICORE  =        2    local potential                                                             
   LCOR   =        T    correct aug charges                                                         
   LPAW   =        T    paw PP                                                                      
   EAUG   =  888.804                                                                                
   DEXC   =    0.000                                                                                
   RMAX   =    1.128    core radius for proj-oper                                                   
   RAUG   =    1.300    factor for augmentation sphere                                              
   RDEP   =    1.125    radius for radial grids                                                     
   RDEPT  =    1.088    core radius for aug-charge                                                  
                                                                                                    
   Atomic configuration                                                                             
    4 entries                                                                                       
     n  l   j            E        occ.                                                              
     1  0  0.50      -514.6923   2.0000                                                             
     2  0  0.50       -23.9615   2.0000                                                             
     2  1  0.50        -9.0305   4.0000                                                             
     3  2  1.50        -9.5241   0.0000                                                             
   Description                                                                                      
     l       E           TYP  RCUT    TYP  RCUT                                                     
     0    -23.9615319     23  1.100                                                                 
     0    -25.3221145     23  1.100                                                                 
     1     -9.0304911     23  1.100                                                                 
     1     -5.4802209     23  1.100                                                                 
     2     -9.5240782      7  1.100                                                                 
  local pseudopotential read in
  partial core-charges read in
  partial kinetic energy density read in
  atomic valenz-charges read in
  non local Contribution for L=           0  read in
    real space projection operators read in
  non local Contribution for L=           0  read in
    real space projection operators read in
  non local Contribution for L=           1  read in
    real space projection operators read in
  non local Contribution for L=           1  read in
    real space projection operators read in
    PAW grid and wavefunctions read in
 
   number of l-projection  operators is LMAX  =           4
   number of lm-projection operators is LMMAX =           8
 
 -----------------------------------------------------------------------------
|                                                                             |
|               ----> ADVICE to this user running VASP <----                  |
|                                                                             |
|     You have a (more or less) 'large supercell' and for larger cells it     |
|     might be more efficient to use real-space projection operators.         |
|     Therefore, try LREAL= Auto in the INCAR file.                           |
|     Mind: For very accurate calculation, you might also keep the            |
|     reciprocal projection scheme (i.e. LREAL=.FALSE.).                      |
|                                                                             |
 -----------------------------------------------------------------------------

 -----------------------------------------------------------------------------
|                                                                             |
|               ----> ADVICE to this user running VASP <----                  |
|                                                                             |
|     You enforced a specific xc type in the INCAR file but a different       |
|     type was found in the POTCAR file.                                      |
|     I HOPE YOU KNOW WHAT YOU ARE DOING!                                     |
|                                                                             |
 -----------------------------------------------------------------------------

  PAW_PBE C_h 06Feb2004                 :
 energy of atom  1       EATOM= -147.1560
 kinetic energy error for atom=    0.0031 (will be added to EATOM!!)
  PAW_PBE O_h 06Feb2004                 :
 energy of atom  2       EATOM= -432.3788
 kinetic energy error for atom=    0.0171 (will be added to EATOM!!)
 
 
 POSCAR:  C  O
  positions in cartesian coordinates
  No initial velocities read in
 exchange correlation table for  LEXCH =       43
   RHO(1)=    0.500       N(1)  =     2000
   RHO(2)=  100.500       N(2)  =     4000
 


--------------------------------------------------------------------------------------------------------


 ion  position               nearest neighbor table
   1  0.972  0.000  0.001-  50 1.42   2 1.42  42 1.42
   2  0.039  0.134  0.001-   5 1.42   7 1.42   1 1.42
   3  0.172  0.000  0.001-  42 1.42  44 1.42   4 1.42
   4  0.239  0.134  0.000-   7 1.42   3 1.42  23 1.42
   5  0.972  0.200  0.001-   6 1.42   2 1.42  34 1.42
   6  0.039  0.334  0.001-   5 1.42  21 1.42  11 1.42
   7  0.172  0.200  0.000-   8 1.42   2 1.42   4 1.42
   8  0.239  0.334  0.000-  13 1.42   7 1.42  21 1.42
   9  0.372  0.000  0.001-  10 1.42  44 1.42  46 1.42
  10  0.439  0.134  0.000-  27 1.42   9 1.42  23 1.42
  11  0.972  0.400  0.001-  12 1.42  36 1.42   6 1.42
  12  0.039  0.534  0.001-  25 1.42  11 1.42  17 1.42
  13  0.372  0.400  0.000-   8 1.42  14 1.42  24 1.42
  14  0.439  0.534  0.000-  13 1.42  29 1.42  19 1.42
  15  0.572  0.000  0.001-  46 1.42  16 1.42  48 1.42
  16  0.639  0.134  0.001-  15 1.42  35 1.42  27 1.42
  17  0.972  0.600  0.001-  38 1.42  18 1.42  12 1.42
  18  0.039  0.734  0.001-  43 1.42  41 1.42  17 1.42
  19  0.572  0.600  0.001-  14 1.42  20 1.42  32 1.42
  20  0.639  0.734  0.001-  49 1.42  19 1.42  47 1.42
  21  0.172  0.400  0.000-  22 1.42   8 1.42   6 1.42
  22  0.239  0.534  0.000-  21 1.42  29 1.42  25 1.42
  23  0.372  0.200  0.000-  10 1.42   4 1.42  24 1.42
  24  0.439  0.334  0.000-  13 1.42  31 1.42  23 1.42
  25  0.172  0.600  0.001-  26 1.42  12 1.42  22 1.42
  26  0.239  0.734  0.001-  25 1.42  45 1.42  43 1.42
  27  0.572  0.200  0.001-  10 1.42  28 1.42  16 1.42
  28  0.639  0.334  0.001-  27 1.42  37 1.42  31 1.42
  29  0.372  0.600  0.000-  22 1.42  14 1.42  30 1.42
  30  0.439  0.734  0.001-  47 1.42  29 1.42  45 1.42
  31  0.572  0.400  0.000-  32 1.42  28 1.42  24 1.42
  32  0.639  0.534  0.001-  31 1.42  39 1.42  19 1.42
  33  0.772  0.000  0.001-  34 1.42  48 1.42  50 1.42
  34  0.839  0.134  0.001-  33 1.42   5 1.42  35 1.42
  35  0.772  0.200  0.001-  36 1.42  16 1.42  34 1.42
  36  0.839  0.334  0.001-  35 1.42  11 1.42  37 1.42
  37  0.772  0.400  0.001-  28 1.42  38 1.42  36 1.42
  38  0.839  0.534  0.001-  17 1.42  37 1.42  39 1.42
  39  0.772  0.600  0.001-  40 1.42  38 1.42  32 1.42
  40  0.839  0.734  0.001-  39 1.42  49 1.42  41 1.42
  41  0.972  0.800  0.001-  18 1.42  42 1.42  40 1.42
  42  0.039  0.934  0.001-   3 1.42  41 1.42   1 1.42
  43  0.172  0.800  0.001-  18 1.42  44 1.42  26 1.42
  44  0.239  0.934  0.001-   9 1.42  43 1.42   3 1.42
  45  0.372  0.800  0.001-  26 1.42  46 1.42  30 1.42
  46  0.439  0.934  0.001-  15 1.42  45 1.42   9 1.42
  47  0.572  0.800  0.001-  30 1.42  48 1.42  20 1.42
  48  0.639  0.934  0.001-  47 1.42  33 1.42  15 1.42
  49  0.772  0.800  0.001-  50 1.42  20 1.42  40 1.42
  50  0.839  0.934  0.001-  49 1.42   1 1.42  33 1.42
  51  0.373  0.251  0.375-  52 1.18  53 1.18
  52  0.421  0.189  0.378-  51 1.18
  53  0.325  0.313  0.372-  51 1.18
 
  LATTYP: Found a hexagonal cell.
 ALAT       =    12.3250000000
 C/A-ratio  =     1.6227180527
  
  Lattice vectors:
  
 A1 = (  12.3250000000,   0.0000000000,   0.0000000000)
 A2 = (  -6.1625000000,  10.6737631016,   0.0000000000)
 A3 = (   0.0000000000,   0.0000000000,  20.0000000000)


Analysis of symmetry for initial positions (statically):
=====================================================================
 Subroutine PRICEL returns:
 Original cell was already a primitive cell.
 

 Routine SETGRP: Setting up the symmetry group for a 
 hexagonal supercell.


 Subroutine GETGRP returns: Found  1 space group operations
 (whereof  1 operations were pure point group operations)
 out of a pool of 24 trial point group operations.


The static configuration has the point symmetry C_1 .


Analysis of symmetry for dynamics (positions and initial velocities):
=====================================================================
 Subroutine PRICEL returns:
 Original cell was already a primitive cell.
 

 Routine SETGRP: Setting up the symmetry group for a 
 hexagonal supercell.


 Subroutine GETGRP returns: Found  1 space group operations
 (whereof  1 operations were pure point group operations)
 out of a pool of 24 trial point group operations.


The dynamic configuration has the point symmetry C_1 .


 Subroutine INISYM returns: Found  1 space group operations
 (whereof  1 operations are pure point group operations),
 and found     1 'primitive' translations


----------------------------------------------------------------------------------------

                                     Primitive cell                                     

  volume of cell :    2631.0826

  direct lattice vectors                    reciprocal lattice vectors
    12.325000000  0.000000000  0.000000000     0.081135903  0.046843835  0.000000000
    -6.162500000 10.673763102  0.000000000     0.000000000  0.093687670  0.000000000
     0.000000000  0.000000000 20.000000000     0.000000000  0.000000000  0.050000000

  length of vectors
    12.325000000 12.325000000 20.000000000     0.093687670  0.093687670  0.050000000

  position of ions in fractional coordinates (direct lattice)
     0.972450841  0.000320818  0.000708389
     0.039118382  0.133659505  0.000550216
     0.172443627  0.000295449  0.000624535
     0.239096278  0.133647917  0.000320585
     0.972452058  0.200322012  0.000606523
     0.039128360  0.333643771  0.000555187
     0.172451764  0.200354552  0.000273959
     0.239124359  0.333665720  0.000090325
     0.372465565  0.000324403  0.000567391
     0.439137473  0.133619939  0.000322923
     0.972449824  0.400309362  0.000684513
     0.039124981  0.533636789  0.000716763
     0.372416176  0.400329481  0.000000000
     0.439099602  0.533638981  0.000290518
     0.572443676  0.000312125  0.000699475
     0.639110207  0.133631751  0.000684093
     0.972452703  0.600305653  0.000800361
     0.039124495  0.733640359  0.000818141
     0.572433471  0.600306242  0.000503618
     0.639111888  0.733641879  0.000659881
     0.172454630  0.400318228  0.000361306
     0.239120185  0.533636548  0.000473136
     0.372459750  0.200295993  0.000111246
     0.439107096  0.333673419  0.000069702
     0.172452155  0.600311506  0.000655425
     0.239123371  0.733638574  0.000718912
     0.572431082  0.200289171  0.000516621
     0.639112773  0.333618630  0.000577970
     0.372439808  0.600308022  0.000453556
     0.439116090  0.733637858  0.000617737
     0.572469358  0.400320504  0.000424897
     0.639119408  0.533650873  0.000574513
     0.772445723  0.000315427  0.000745201
     0.839116277  0.133640203  0.000719132
     0.772440513  0.200307432  0.000726291
     0.839120241  0.333635728  0.000731834
     0.772446320  0.400298367  0.000728722
     0.839118980  0.533633964  0.000776376
     0.772456143  0.600308173  0.000744639
     0.839115033  0.733643180  0.000789390
     0.972455313  0.800305582  0.000815291
     0.039114714  0.933643289  0.000747563
     0.172457971  0.800312211  0.000779216
     0.239134551  0.933647193  0.000681063
     0.372451396  0.800316674  0.000689249
     0.439124489  0.933644769  0.000676788
     0.572441101  0.800310054  0.000668168
     0.639115067  0.933638985  0.000734556
     0.772445098  0.800313187  0.000752577
     0.839116614  0.933644338  0.000758538
     0.373021009  0.251226878  0.374576769
     0.420879805  0.189313152  0.377797862
     0.325156981  0.313167186  0.371604025

  ion indices of the primitive-cell ions
   primitive index   ion index
                 1           1
                 2           2
                 3           3
                 4           4
                 5           5
                 6           6
                 7           7
                 8           8
                 9           9
                10          10
                11          11
                12          12
                13          13
                14          14
                15          15
                16          16
                17          17
                18          18
                19          19
                20          20
                21          21
                22          22
                23          23
                24          24
                25          25
                26          26
                27          27
                28          28
                29          29
                30          30
                31          31
                32          32
                33          33
                34          34
                35          35
                36          36
                37          37
                38          38
                39          39
                40          40
                41          41
                42          42
                43          43
                44          44
                45          45
                46          46
                47          47
                48          48
                49          49
                50          50
                51          51
                52          52
                53          53

----------------------------------------------------------------------------------------

 
 
 KPOINTS: auto                                    

Automatic generation of k-mesh.
 Grid dimensions read from file:
 generate k-points for:    1    1    1

 Generating k-lattice:

  Cartesian coordinates                     Fractional coordinates (reciprocal lattice)
     0.081135903  0.046843835  0.000000000     1.000000000 -0.000000000  0.000000000
     0.000000000  0.093687670  0.000000000     0.000000000  1.000000000  0.000000000
     0.000000000  0.000000000  0.050000000     0.000000000  0.000000000  1.000000000

  Length of vectors
     0.093687670  0.093687670  0.050000000

  Shift w.r.t. Gamma in fractional coordinates (k-lattice)
     0.000000000  0.000000000  0.000000000

 
 Subroutine IBZKPT returns following result:
 ===========================================
 
 Found      1 irreducible k-points:
 
 Following reciprocal coordinates:
            Coordinates               Weight
  0.000000  0.000000  0.000000      1.000000
 
 Following cartesian coordinates:
            Coordinates               Weight
  0.000000  0.000000  0.000000      1.000000
 


--------------------------------------------------------------------------------------------------------




 Dimension of arrays:
   k-points           NKPTS =      1   k-points in BZ     NKDIM =      1   number of bands    NBANDS=    136
   number of dos      NEDOS =    301   number of ions     NIONS =     53
   non local maximal  LDIM  =      4   non local SUM 2l+1 LMDIM =      8
   total plane-waves  NPLWV = ******
   max r-space proj   IRMAX =      1   max aug-charges    IRDMAX=   9736
   dimension x,y,z NGX =   128 NGY =  128 NGZ =  210
   dimension x,y,z NGXF=   256 NGYF=  256 NGZF=  420
   support grid    NGXF=   256 NGYF=  256 NGZF=  420
   ions per type =              51   2
   NGX,Y,Z   is equivalent  to a cutoff of  17.27, 17.27, 17.46 a.u.
   NGXF,Y,Z  is equivalent  to a cutoff of  34.53, 34.53, 34.91 a.u.

 SYSTEM =  unknown system                          
 POSCAR =   C  O                                   

 Startparameter for this run:
   NWRITE =      2    write-flag & timer
   PREC   = accura    normal or accurate (medium, high low for compatibility)
   ISTART =      0    job   : 0-new  1-cont  2-samecut
   ICHARG =      2    charge: 1-file 2-atom 10-const
   ISPIN  =      1    spin polarized calculation?
   LNONCOLLINEAR =      F non collinear calculations
   LSORBIT =      F    spin-orbit coupling
   INIWAV =      1    electr: 0-lowe 1-rand  2-diag
   LASPH  =      T    aspherical Exc in radial PAW
 Electronic Relaxation 1
   ENCUT  = 1000.0 eV  73.50 Ry    8.57 a.u.  31.78 31.78 51.57*2*pi/ulx,y,z
   ENINI  = 1000.0     initial cutoff
   ENAUG  =  946.8 eV  augmentation charge cutoff
   NELM   =     60;   NELMIN=  2; NELMDL= -5     # of ELM steps 
   EDIFF  = 0.1E-06   stopping-criterion for ELM
   LREAL  =      F    real-space projection
   NLSPLINE    = F    spline interpolate recip. space projectors
   LCOMPAT=      F    compatible to vasp.4.4
   GGA_COMPAT  = T    GGA compatible to vasp.4.4-vasp.4.6
   LMAXPAW     = -100 max onsite density
   LMAXMIX     =    2 max onsite mixed and CHGCAR
   VOSKOWN=      0    Vosko Wilk Nusair interpolation
   ROPT   =    0.00000   0.00000
 Ionic relaxation
   EDIFFG = 0.1E-05   stopping-criterion for IOM
   NSW    =      0    number of steps for IOM
   NBLOCK =      1;   KBLOCK =      1    inner block; outer block 
   IBRION =     -1    ionic relax: 0-MD 1-quasi-New 2-CG
   NFREE  =      0    steps in history (QN), initial steepest desc. (CG)
   ISIF   =      0    stress and relaxation
   IWAVPR =     10    prediction:  0-non 1-charg 2-wave 3-comb
   ISYM   =      2    0-nonsym 1-usesym 2-fastsym
   LCORR  =      T    Harris-Foulkes like correction to forces

   POTIM  = 0.5000    time-step for ionic-motion
   TEIN   =    0.0    initial temperature
   TEBEG  =    0.0;   TEEND  =   0.0 temperature during run
   SMASS  =  -3.00    Nose mass-parameter (am)
   estimated Nose-frequenzy (Omega)   =  0.10E-29 period in steps = 0.13E+47 mass=  -0.347E-26a.u.
   SCALEE = 1.0000    scale energy and forces
   NPACO  =    256;   APACO  = 16.0  distance and # of slots for P.C.
   PSTRESS=    0.0 pullay stress

  Mass of Ions in am
   POMASS =  12.01 16.00
  Ionic Valenz
   ZVAL   =   4.00  6.00
  Atomic Wigner-Seitz radii
   RWIGS  =  -1.00 -1.00
  virtual crystal weights 
   VCA    =   1.00  1.00
   NELECT =     216.0000    total number of electrons
   NUPDOWN=      -1.0000    fix difference up-down

 DOS related values:
   EMIN   =  10.00;   EMAX   =-10.00  energy-range for DOS
   EFERMI =   0.00
   ISMEAR =     0;   SIGMA  =   0.01  broadening in eV -4-tet -1-fermi 0-gaus

 Electronic relaxation 2 (details)
   IALGO  =     58    algorithm
   LDIAG  =      T    sub-space diagonalisation (order eigenvalues)
   LSUBROT=      F    optimize rotation matrix (better conditioning)
   TURBO    =      0    0=normal 1=particle mesh
   IRESTART =      0    0=no restart 2=restart with 2 vectors
   NREBOOT  =      0    no. of reboots
   NMIN     =      0    reboot dimension
   EREF     =   0.00    reference energy to select bands
   IMIX   =      4    mixing-type and parameters
     AMIX     =   0.40;   BMIX     =  1.00
     AMIX_MAG =   1.60;   BMIX_MAG =  1.00
     AMIN     =   0.10
     WC   =   100.;   INIMIX=   1;  MIXPRE=   1;  MAXMIX= -45

 Intra band minimization:
   WEIMIN = 0.0000     energy-eigenvalue tresh-hold
   EBREAK =  0.18E-09  absolut break condition
   DEPER  =   0.30     relativ break condition  

   TIME   =   0.40     timestep for ELM

  volume/ion in A,a.u.               =      49.64       335.01
  Fermi-wavevector in a.u.,A,eV,Ry     =   0.711510  1.344560  6.887909  0.506247
  Thomas-Fermi vector in A             =   1.798641
 
 Write flags
   LWAVE        =      T    write WAVECAR
   LDOWNSAMPLE  =      F    k-point downsampling of WAVECAR
   LCHARG       =      T    write CHGCAR
   LVTOT        =      F    write LOCPOT, total local potential
   LVHAR        =      F    write LOCPOT, Hartree potential only
   LELF         =      F    write electronic localiz. function (ELF)
   LORBIT       =      0    0 simple, 1 ext, 2 COOP (PROOUT), +10 PAW based schemes


 Dipole corrections
   LMONO  =      F    monopole corrections only (constant potential shift)
   LDIPOL =      F    correct potential (dipole corrections)
   IDIPOL =      0    1-x, 2-y, 3-z, 4-all directions 
   EPSILON=  1.0000000 bulk dielectric constant

 Exchange correlation treatment:
   GGA     =    MK    GGA type
   LEXCH   =    43    internal setting for exchange type
   VOSKOWN=      0    Vosko Wilk Nusair interpolation
   LHFCALC =     F    Hartree Fock is set to
   LHFONE  =     F    Hartree Fock one center treatment
   AEXX    =    0.0000 exact exchange contribution

 vdW DFT:
   LUSE_VDW   =     T    switch on vdW DFT
   Zab_VDW    =-.8491    correlation parameter
   PARAM1     =0.1234
   PARAM2     =1.0000
   PARAM3     =0.0000
   -- rVV10 --
   BPARAM     = 6.3000
   CPARAM     = 0.0093

 Linear response parameters
   LEPSILON=     F    determine dielectric tensor
   LRPA    =     F    only Hartree local field effects (RPA)
   LNABLA  =     F    use nabla operator in PAW spheres
   LVEL    =     F    velocity operator in full k-point grid
   LINTERFAST=   F  fast interpolation
   KINTER  =     0    interpolate to denser k-point grid
   CSHIFT  =0.1000    complex shift for real part using Kramers Kronig
   OMEGAMAX=  -1.0    maximum frequency
   DEG_THRESHOLD= 0.2000000E-02 threshold for treating states as degnerate
   RTIME   =   -0.100 relaxation time in fs
  (WPLASMAI=    0.000 imaginary part of plasma frequency in eV, 0.658/RTIME)
   DFIELD  = 0.0000000 0.0000000 0.0000000 field for delta impulse in time
 
 Orbital magnetization related:
   ORBITALMAG=     F  switch on orbital magnetization
   LCHIMAG   =     F  perturbation theory with respect to B field
   DQ        =  0.001000  dq finite difference perturbation B field
   LLRAUG    =     F  two centre corrections for induced B field



--------------------------------------------------------------------------------------------------------


 Static calculation
 charge density and potential will be updated during run
 non-spin polarized calculation
 Conjugate gradient for all bands (Freysoldt, et al. PRB 79, 241103 (2009))
 preconditioned conjugated gradient                                        
 perform sub-space diagonalisation
    before iterative eigenvector-optimisation
 modified Broyden-mixing scheme, WC =      100.0
 initial mixing is a Kerker type mixing with AMIX =  0.4000 and BMIX =      1.0000
 Hartree-type preconditioning will be used
 using additional bands           28
 reciprocal scheme for non local part
 use partial core corrections
 no Harris-corrections to forces 
 use gradient corrections 
 use of overlap-Matrix (Vanderbilt PP)
 Gauss-broadening in eV      SIGMA  =   0.01


--------------------------------------------------------------------------------------------------------


  energy-cutoff  :     1000.00
  volume of cell :     2631.08
      direct lattice vectors                 reciprocal lattice vectors
    12.325000000  0.000000000  0.000000000     0.081135903  0.046843835  0.000000000
    -6.162500000 10.673763102  0.000000000     0.000000000  0.093687670  0.000000000
     0.000000000  0.000000000 20.000000000     0.000000000  0.000000000  0.050000000

  length of vectors
    12.325000000 12.325000000 20.000000000     0.093687670  0.093687670  0.050000000


 
 k-points in units of 2pi/SCALE and weight: auto                                    
   0.00000000  0.00000000  0.00000000       1.000
 
 k-points in reciprocal lattice and weights: auto                                    
   0.00000000  0.00000000  0.00000000       1.000
 
 position of ions in fractional coordinates (direct lattice) 
   0.97245084  0.00032082  0.00070839
   0.03911838  0.13365950  0.00055022
   0.17244363  0.00029545  0.00062454
   0.23909628  0.13364792  0.00032058
   0.97245206  0.20032201  0.00060652
   0.03912836  0.33364377  0.00055519
   0.17245176  0.20035455  0.00027396
   0.23912436  0.33366572  0.00009033
   0.37246557  0.00032440  0.00056739
   0.43913747  0.13361994  0.00032292
   0.97244982  0.40030936  0.00068451
   0.03912498  0.53363679  0.00071676
   0.37241618  0.40032948  0.00000000
   0.43909960  0.53363898  0.00029052
   0.57244368  0.00031213  0.00069947
   0.63911021  0.13363175  0.00068409
   0.97245270  0.60030565  0.00080036
   0.03912449  0.73364036  0.00081814
   0.57243347  0.60030624  0.00050362
   0.63911189  0.73364188  0.00065988
   0.17245463  0.40031823  0.00036131
   0.23912018  0.53363655  0.00047314
   0.37245975  0.20029599  0.00011125
   0.43910710  0.33367342  0.00006970
   0.17245216  0.60031151  0.00065542
   0.23912337  0.73363857  0.00071891
   0.57243108  0.20028917  0.00051662
   0.63911277  0.33361863  0.00057797
   0.37243981  0.60030802  0.00045356
   0.43911609  0.73363786  0.00061774
   0.57246936  0.40032050  0.00042490
   0.63911941  0.53365087  0.00057451
   0.77244572  0.00031543  0.00074520
   0.83911628  0.13364020  0.00071913
   0.77244051  0.20030743  0.00072629
   0.83912024  0.33363573  0.00073183
   0.77244632  0.40029837  0.00072872
   0.83911898  0.53363396  0.00077638
   0.77245614  0.60030817  0.00074464
   0.83911503  0.73364318  0.00078939
   0.97245531  0.80030558  0.00081529
   0.03911471  0.93364329  0.00074756
   0.17245797  0.80031221  0.00077922
   0.23913455  0.93364719  0.00068106
   0.37245140  0.80031667  0.00068925
   0.43912449  0.93364477  0.00067679
   0.57244110  0.80031005  0.00066817
   0.63911507  0.93363899  0.00073456
   0.77244510  0.80031319  0.00075258
   0.83911661  0.93364434  0.00075854
   0.37302101  0.25122688  0.37457677
   0.42087980  0.18931315  0.37779786
   0.32515698  0.31316719  0.37160403
 
 position of ions in cartesian coordinates  (Angst):
  11.98347958  0.00342433  0.01416777
  -0.34154264  1.42664989  0.01100432
   2.12354700  0.00315355  0.01249070
   2.12325634  1.42652621  0.00641170
  10.75098721  2.13818970  0.01213047
  -1.57382270  3.56123457  0.01110375
   0.89078307  2.13853702  0.00547917
   0.89099273  3.56146885  0.00180651
   4.58863896  0.00346260  0.01134782
   4.58893648  1.42622757  0.00645846
   9.51853763  4.27280730  0.01369027
  -2.80632132  5.69591267  0.01433526
   2.12299894  4.27302204  0.00000000
   2.12335237  5.69593607  0.00581036
   7.05344483  0.00333155  0.01398950
   7.05352764  1.42635365  0.01368187
   8.28609598  6.40752033  0.01600723
  -4.03884931  7.83070339  0.01636283
   3.35585531  6.40752662  0.01007237
   3.35598594  7.83071962  0.01319763
  -0.34145776  4.27290193  0.00722612
  -0.34137895  5.69591010  0.00946273
   3.35624236  2.13791198  0.00222492
   3.35573251  3.56155103  0.00139405
  -1.57394684  6.40758280  0.01310850
  -1.57385216  7.83068434  0.01437823
   5.82093107  2.13783916  0.01033241
   5.82114012  3.56096622  0.01155939
   0.89092245  6.40754561  0.00907111
   0.89106251  7.83067670  0.01235474
   4.58870974  4.27292622  0.00849795
   4.58852320  5.69606300  0.01149026
   9.51844972  0.00336679  0.01490402
   9.51855036  1.42644387  0.01438264
   8.28593477  2.13803408  0.01452582
   8.28612680  3.56114872  0.01463668
   7.05356221  4.27268994  0.01457444
   7.05362213  5.69588251  0.01552751
   5.82112285  6.40754723  0.01489279
   5.82101669  7.83073350  0.01578780
   7.05362858  8.54227219  0.01630582
  -5.27148792  9.96548729  0.01495127
  -2.80637951  8.54234295  0.01558431
  -2.80626749  9.96552896  0.01362126
  -0.34148805  8.54239058  0.01378498
  -0.34137657  9.96550309  0.01353576
   2.12342586  8.54231992  0.01336337
   2.12354296  9.96544135  0.01469111
   4.58845581  8.54235337  0.01505154
   4.58852904  9.96549848  0.01517076
   3.04929830  2.68153618  7.49153538
   4.02070129  2.02068374  7.55595724
   2.07766701  3.34267235  7.43208051
 


--------------------------------------------------------------------------------------------------------


 k-point   1 :   0.0000 0.0000 0.0000  plane waves:  189031

 maximum and minimum number of plane-waves per node :      6755     6748

 maximum number of plane-waves:    189031
 maximum index in each direction: 
   IXMAX=   31   IYMAX=   31   IZMAX=   51
   IXMIN=  -31   IYMIN=  -31   IZMIN=  -51


 parallel 3D FFT for wavefunctions:
    minimum data exchange during FFTs selected (reduces bandwidth)
 parallel 3D FFT for charge:
    minimum data exchange during FFTs selected (reduces bandwidth)


 total amount of memory used by VASP MPI-rank0    85439. kBytes
=======================================================================

   base      :      30000. kBytes
   nonl-proj :       6586. kBytes
   fftplans  :      14299. kBytes
   grid      :      23511. kBytes
   one-center:          6. kBytes
   wavefun   :      11037. kBytes
 
     INWAV:  cpu time    0.0000: real time    0.0000
 Broyden mixing: mesh for mixing (old mesh)
   NGX = 63   NGY = 63   NGZ =103
  (NGX  =256   NGY  =256   NGZ  =420)
  gives a total of 408807 points

 initial charge density was supplied:
 charge density of overlapping atoms calculated
 number of electron     216.0000000 magnetization 
 keeping initial charge density in first step


--------------------------------------------------------------------------------------------------------


 Maximum index for augmentation-charges          459 (set IRDMAX)


--------------------------------------------------------------------------------------------------------


 First call to EWALD:  gamma=   0.128
 Maximum number of real-space cells 3x 3x 2
 Maximum number of reciprocal cells 3x 3x 4

    FEWALD:  cpu time    0.0025: real time    0.0025


--------------------------------------- Iteration      1(   1)  ---------------------------------------


vdW kernel read from vdw_kernel.bindat
  0.0000  0.2424  0.5071  0.7962  1.1119  1.4567  1.8333  2.2446  2.6937  3.1842
  3.7199  4.3049  4.9438  5.6415  6.4036  7.2358  8.1446  9.1372 10.2212 11.4050
 12.6979 14.1099 15.6519 17.3360 19.1751 21.1837 23.3773 25.7729 28.3892 31.2465
 34.3669 37.7748 41.4965 45.5611 50.0000
 
    POTLOK:  cpu time    3.4182: real time    3.4479
    SETDIJ:  cpu time    0.0560: real time    0.0563
    TRIAL :  cpu time    1.5136: real time    1.5302
    CORREC:  cpu time    0.0001: real time    0.0001
    --------------------------------------------
      LOOP:  cpu time    4.9901: real time    5.0573

 eigenvalue-minimisations  :   272
 total energy-change (2. order) : 0.2749500E+04  (-0.1099273E+05)
 number of electron     216.0000000 magnetization 
 augmentation part      216.0000000 magnetization 

 Free energy of the ion-electron system (eV)
  ---------------------------------------------------
  alpha Z        PSCENC =        59.93625244
  Ewald energy   TEWEN  =     29907.56189182
  -Hartree energ DENC   =    -36083.01706340
  -exchange      EXHF   =         0.00000000
  -V(xc)+E(xc)   XCENC  =       414.11262663
  PAW double counting   =      6552.85433684    -6257.21772958
  entropy T*S    EENTRO =        -0.00000000
  eigenvalues    EBANDS =      -259.76558979
  atomic energy  EATOM  =      8415.03548706
  ---------------------------------------------------
  free energy    TOTEN  =      2749.50021204 eV

  energy without entropy =     2749.50021204  energy(sigma->0) =     2749.50021204


--------------------------------------------------------------------------------------------------------




--------------------------------------- Iteration      1(   2)  ---------------------------------------


    TRIAL :  cpu time    2.1317: real time    2.1534
    CORREC:  cpu time    0.0001: real time    0.0001
    --------------------------------------------
      LOOP:  cpu time    2.1735: real time    2.1991

 eigenvalue-minimisations  :   440
 total energy-change (2. order) :-0.2392646E+04  (-0.2239451E+04)
 number of electron     216.0000000 magnetization 
 augmentation part      216.0000000 magnetization 

 Free energy of the ion-electron system (eV)
  ---------------------------------------------------
  alpha Z        PSCENC =        59.93625244
  Ewald energy   TEWEN  =     29907.56189182
  -Hartree energ DENC   =    -36083.01706340
  -exchange      EXHF   =         0.00000000
  -V(xc)+E(xc)   XCENC  =       414.11262663
  PAW double counting   =      6552.85433684    -6257.21772958
  entropy T*S    EENTRO =        -0.00000000
  eigenvalues    EBANDS =     -2652.41189566
  atomic energy  EATOM  =      8415.03548706
  ---------------------------------------------------
  free energy    TOTEN  =       356.85390616 eV

  energy without entropy =      356.85390616  energy(sigma->0) =      356.85390616


--------------------------------------------------------------------------------------------------------




--------------------------------------- Iteration      1(   3)  ---------------------------------------


    TRIAL :  cpu time    1.7572: real time    1.7762
    CORREC:  cpu time    0.0001: real time    0.0001
    --------------------------------------------
      LOOP:  cpu time    1.8168: real time    1.8364

 eigenvalue-minimisations  :   344
 total energy-change (2. order) :-0.7499052E+03  (-0.7436020E+03)
 number of electron     216.0000000 magnetization 
 augmentation part      216.0000000 magnetization 

 Free energy of the ion-electron system (eV)
  ---------------------------------------------------
  alpha Z        PSCENC =        59.93625244
  Ewald energy   TEWEN  =     29907.56189182
  -Hartree energ DENC   =    -36083.01706340
  -exchange      EXHF   =         0.00000000
  -V(xc)+E(xc)   XCENC  =       414.11262663
  PAW double counting   =      6552.85433684    -6257.21772958
  entropy T*S    EENTRO =        -0.00000000
  eigenvalues    EBANDS =     -3402.31711052
  atomic energy  EATOM  =      8415.03548706
  ---------------------------------------------------
  free energy    TOTEN  =      -393.05130869 eV

  energy without entropy =     -393.05130869  energy(sigma->0) =     -393.05130869


--------------------------------------------------------------------------------------------------------




--------------------------------------- Iteration      1(   4)  ---------------------------------------


    TRIAL :  cpu time    1.7315: real time    1.7475
    CORREC:  cpu time    0.0001: real time    0.0001
    --------------------------------------------
      LOOP:  cpu time    1.7498: real time    1.7745

 eigenvalue-minimisations  :   336
 total energy-change (2. order) :-0.5524332E+02  (-0.5475026E+02)
 number of electron     216.0000000 magnetization 
 augmentation part      216.0000000 magnetization 

 Free energy of the ion-electron system (eV)
  ---------------------------------------------------
  alpha Z        PSCENC =        59.93625244
  Ewald energy   TEWEN  =     29907.56189182
  -Hartree energ DENC   =    -36083.01706340
  -exchange      EXHF   =         0.00000000
  -V(xc)+E(xc)   XCENC  =       414.11262663
  PAW double counting   =      6552.85433684    -6257.21772958
  entropy T*S    EENTRO =        -0.00000000
  eigenvalues    EBANDS =     -3457.56042679
  atomic energy  EATOM  =      8415.03548706
  ---------------------------------------------------
  free energy    TOTEN  =      -448.29462497 eV

  energy without entropy =     -448.29462497  energy(sigma->0) =     -448.29462497


--------------------------------------------------------------------------------------------------------




--------------------------------------- Iteration      1(   5)  ---------------------------------------


    TRIAL :  cpu time    1.9106: real time    1.9276
    CORREC:  cpu time    0.0001: real time    0.0001
    CHARGE:  cpu time    0.1170: real time    0.1193
    --------------------------------------------
      LOOP:  cpu time    2.1022: real time    2.1221

 eigenvalue-minimisations  :   384
 total energy-change (2. order) :-0.1688597E+01  (-0.1681386E+01)
 number of electron     216.0000000 magnetization 
 augmentation part       -0.2454964 magnetization 

 Free energy of the ion-electron system (eV)
  ---------------------------------------------------
  alpha Z        PSCENC =        59.93625244
  Ewald energy   TEWEN  =     29907.56189182
  -Hartree energ DENC   =    -36083.01706340
  -exchange      EXHF   =         0.00000000
  -V(xc)+E(xc)   XCENC  =       414.11262663
  PAW double counting   =      6552.85433684    -6257.21772958
  entropy T*S    EENTRO =        -0.00000000
  eigenvalues    EBANDS =     -3459.24902419
  atomic energy  EATOM  =      8415.03548706
  ---------------------------------------------------
  free energy    TOTEN  =      -449.98322237 eV

  energy without entropy =     -449.98322237  energy(sigma->0) =     -449.98322237


--------------------------------------------------------------------------------------------------------




--------------------------------------- Iteration      1(   6)  ---------------------------------------


    POTLOK:  cpu time    3.0613: real time    3.0858
    SETDIJ:  cpu time    0.0543: real time    0.0545
    TRIAL :  cpu time    0.8606: real time    0.8694
    CORREC:  cpu time    3.4445: real time    3.4788
    CHARGE:  cpu time    0.1156: real time    0.1170
    --------------------------------------------
      LOOP:  cpu time    7.6039: real time    7.6749

 eigenvalue-minimisations  :     0
 total energy-change (2. order) : 0.5127848E+02  (-0.1603699E+02)
 number of electron     216.0000000 magnetization 
 augmentation part       -0.3426660 magnetization 

 Free energy of the ion-electron system (eV)
  ---------------------------------------------------
  alpha Z        PSCENC =        59.93625244
  Ewald energy   TEWEN  =     29907.56189182
  -Hartree energ DENC   =    -37488.93994580
  -exchange      EXHF   =         0.00000000
  -V(xc)+E(xc)   XCENC  =       461.76367014
  PAW double counting   =     85916.75264456   -85626.13199182
  entropy T*S    EENTRO =        -0.00000000
  eigenvalues    EBANDS =     -2044.68275017
  atomic energy  EATOM  =      8415.03548706
  ---------------------------------------------------
  free energy    TOTEN  =      -398.70474175 eV

  energy without entropy =     -398.70474175  energy(sigma->0) =     -398.70474175


--------------------------------------------------------------------------------------------------------




--------------------------------------- Iteration      1(   7)  ---------------------------------------


    POTLOK:  cpu time    3.0713: real time    3.0945
    SETDIJ:  cpu time    0.0690: real time    0.0692
    TRIAL :  cpu time    0.8645: real time    0.8729
    CORREC:  cpu time    3.4196: real time    3.4477
    CHARGE:  cpu time    0.1159: real time    0.1171
    --------------------------------------------
      LOOP:  cpu time    7.6025: real time    7.6679

 eigenvalue-minimisations  :     0
 total energy-change (2. order) :-0.1608780E+02  (-0.1837286E+01)
 number of electron     216.0000000 magnetization 
 augmentation part       -0.3880320 magnetization 

 Free energy of the ion-electron system (eV)
  ---------------------------------------------------
  alpha Z        PSCENC =        59.93625244
  Ewald energy   TEWEN  =     29907.56189182
  -Hartree energ DENC   =    -36980.01372687
  -exchange      EXHF   =         0.00000000
  -V(xc)+E(xc)   XCENC  =       444.54963688
  PAW double counting   =    100995.40305835  -100702.35415581
  entropy T*S    EENTRO =        -0.00000000
  eigenvalues    EBANDS =     -2554.91098657
  atomic energy  EATOM  =      8415.03548706
  ---------------------------------------------------
  free energy    TOTEN  =      -414.79254268 eV

  energy without entropy =     -414.79254268  energy(sigma->0) =     -414.79254268


--------------------------------------------------------------------------------------------------------




--------------------------------------- Iteration      1(   8)  ---------------------------------------


    POTLOK:  cpu time    3.0802: real time    3.1036
    SETDIJ:  cpu time    0.0654: real time    0.0656
    TRIAL :  cpu time    0.8545: real time    0.8630
    CORREC:  cpu time    3.4232: real time    3.4507
    CHARGE:  cpu time    0.1182: real time    0.1196
    --------------------------------------------
      LOOP:  cpu time    7.5679: real time    7.6347

 eigenvalue-minimisations  :     0
 total energy-change (2. order) :-0.1835589E+01  (-0.4833096E+00)
 number of electron     216.0000000 magnetization 
 augmentation part       -0.4057869 magnetization 

 Free energy of the ion-electron system (eV)
  ---------------------------------------------------
  alpha Z        PSCENC =        59.93625244
  Ewald energy   TEWEN  =     29907.56189182
  -Hartree energ DENC   =    -36951.36134819
  -exchange      EXHF   =         0.00000000
  -V(xc)+E(xc)   XCENC  =       444.02409584
  PAW double counting   =    104861.07565937  -104567.75207865
  entropy T*S    EENTRO =        -0.00000000
  eigenvalues    EBANDS =     -2585.14809147
  atomic energy  EATOM  =      8415.03548706
  ---------------------------------------------------
  free energy    TOTEN  =      -416.62813176 eV

  energy without entropy =     -416.62813176  energy(sigma->0) =     -416.62813176


--------------------------------------------------------------------------------------------------------




--------------------------------------- Iteration      1(   9)  ---------------------------------------


    POTLOK:  cpu time    3.0769: real time    3.1050
    SETDIJ:  cpu time    0.0654: real time    0.0657
    TRIAL :  cpu time    0.8554: real time    0.8659
    CORREC:  cpu time    3.4225: real time    3.4565
    CHARGE:  cpu time    0.1158: real time    0.1172
    --------------------------------------------
      LOOP:  cpu time    7.5931: real time    7.6721

 eigenvalue-minimisations  :     0
 total energy-change (2. order) :-0.4832127E+00  (-0.1684642E+00)
 number of electron     216.0000000 magnetization 
 augmentation part       -0.4143764 magnetization 

 Free energy of the ion-electron system (eV)
  ---------------------------------------------------
  alpha Z        PSCENC =        59.93625244
  Ewald energy   TEWEN  =     29907.56189182
  -Hartree energ DENC   =    -36967.47624850
  -exchange      EXHF   =         0.00000000
  -V(xc)+E(xc)   XCENC  =       444.23492309
  PAW double counting   =    107418.50002572  -107125.06144332
  entropy T*S    EENTRO =        -0.00000000
  eigenvalues    EBANDS =     -2569.84223278
  atomic energy  EATOM  =      8415.03548706
  ---------------------------------------------------
  free energy    TOTEN  =      -417.11134447 eV

  energy without entropy =     -417.11134447  energy(sigma->0) =     -417.11134447


--------------------------------------------------------------------------------------------------------




--------------------------------------- Iteration      1(  10)  ---------------------------------------


    POTLOK:  cpu time    3.0744: real time    3.1029
    SETDIJ:  cpu time    0.0656: real time    0.0659
    TRIAL :  cpu time    0.8559: real time    0.8667
    CORREC:  cpu time    3.4430: real time    3.4766
    CHARGE:  cpu time    0.1161: real time    0.1175
    --------------------------------------------
      LOOP:  cpu time    7.5934: real time    7.6872

 eigenvalue-minimisations  :     0
 total energy-change (2. order) :-0.1681234E+00  (-0.7409832E-01)
 number of electron     216.0000000 magnetization 
 augmentation part       -0.4148337 magnetization 

 Free energy of the ion-electron system (eV)
  ---------------------------------------------------
  alpha Z        PSCENC =        59.93625244
  Ewald energy   TEWEN  =     29907.56189182
  -Hartree energ DENC   =    -36967.32010077
  -exchange      EXHF   =         0.00000000
  -V(xc)+E(xc)   XCENC  =       444.12794427
  PAW double counting   =    107930.42200114  -107636.90553143
  entropy T*S    EENTRO =        -0.00000000
  eigenvalues    EBANDS =     -2570.13741237
  atomic energy  EATOM  =      8415.03548706
  ---------------------------------------------------
  free energy    TOTEN  =      -417.27946783 eV

  energy without entropy =     -417.27946783  energy(sigma->0) =     -417.27946783


--------------------------------------------------------------------------------------------------------




--------------------------------------- Iteration      1(  11)  ---------------------------------------


    POTLOK:  cpu time    3.0651: real time    3.1123
    SETDIJ:  cpu time    0.0655: real time    0.0659
    TRIAL :  cpu time    0.8530: real time    0.8627
    CORREC:  cpu time    3.4244: real time    3.4603
    CHARGE:  cpu time    0.1162: real time    0.1180
    --------------------------------------------
      LOOP:  cpu time    7.5725: real time    7.6835

 eigenvalue-minimisations  :     0
 total energy-change (2. order) :-0.7383980E-01  (-0.3095727E-01)
 number of electron     216.0000000 magnetization 
 augmentation part       -0.4146424 magnetization 

 Free energy of the ion-electron system (eV)
  ---------------------------------------------------
  alpha Z        PSCENC =        59.93625244
  Ewald energy   TEWEN  =     29907.56189182
  -Hartree energ DENC   =    -36962.30919932
  -exchange      EXHF   =         0.00000000
  -V(xc)+E(xc)   XCENC  =       444.06512008
  PAW double counting   =    107523.45743876  -107229.94447019
  entropy T*S    EENTRO =        -0.00000000
  eigenvalues    EBANDS =     -2575.15582829
  atomic energy  EATOM  =      8415.03548706
  ---------------------------------------------------
  free energy    TOTEN  =      -417.35330763 eV

  energy without entropy =     -417.35330763  energy(sigma->0) =     -417.35330763


--------------------------------------------------------------------------------------------------------




--------------------------------------- Iteration      1(  12)  ---------------------------------------


    POTLOK:  cpu time    3.0885: real time    3.1120
    SETDIJ:  cpu time    0.0656: real time    0.0658
    TRIAL :  cpu time    0.8532: real time    0.8615
    CORREC:  cpu time    3.4307: real time    3.4582
    CHARGE:  cpu time    0.1159: real time    0.1173
    --------------------------------------------
      LOOP:  cpu time    7.6632: real time    7.7286

 eigenvalue-minimisations  :     0
 total energy-change (2. order) :-0.3084799E-01  (-0.1041178E-01)
 number of electron     216.0000000 magnetization 
 augmentation part       -0.4145909 magnetization 

 Free energy of the ion-electron system (eV)
  ---------------------------------------------------
  alpha Z        PSCENC =        59.93625244
  Ewald energy   TEWEN  =     29907.56189182
  -Hartree energ DENC   =    -36959.87354187
  -exchange      EXHF   =         0.00000000
  -V(xc)+E(xc)   XCENC  =       444.00086256
  PAW double counting   =    107209.63193908  -106916.13401456
  entropy T*S    EENTRO =        -0.00000000
  eigenvalues    EBANDS =     -2577.54303216
  atomic energy  EATOM  =      8415.03548706
  ---------------------------------------------------
  free energy    TOTEN  =      -417.38415562 eV

  energy without entropy =     -417.38415562  energy(sigma->0) =     -417.38415562


--------------------------------------------------------------------------------------------------------




--------------------------------------- Iteration      1(  13)  ---------------------------------------


    POTLOK:  cpu time    3.0766: real time    3.1008
    SETDIJ:  cpu time    0.0640: real time    0.0642
    TRIAL :  cpu time    0.8535: real time    0.8621
    CORREC:  cpu time    3.4242: real time    3.4529
    CHARGE:  cpu time    0.1154: real time    0.1167
    --------------------------------------------
      LOOP:  cpu time    7.5647: real time    7.6410

 eigenvalue-minimisations  :     0
 total energy-change (2. order) :-0.1040656E-01  (-0.3116704E-02)
 number of electron     216.0000000 magnetization 
 augmentation part       -0.4140112 magnetization 

 Free energy of the ion-electron system (eV)
  ---------------------------------------------------
  alpha Z        PSCENC =        59.93625244
  Ewald energy   TEWEN  =     29907.56189182
  -Hartree energ DENC   =    -36960.13120407
  -exchange      EXHF   =         0.00000000
  -V(xc)+E(xc)   XCENC  =       444.00535250
  PAW double counting   =    107088.59819212  -106795.11060404
  entropy T*S    EENTRO =        -0.00000000
  eigenvalues    EBANDS =     -2577.28993003
  atomic energy  EATOM  =      8415.03548706
  ---------------------------------------------------
  free energy    TOTEN  =      -417.39456218 eV

  energy without entropy =     -417.39456218  energy(sigma->0) =     -417.39456218


--------------------------------------------------------------------------------------------------------




--------------------------------------- Iteration      1(  14)  ---------------------------------------


    POTLOK:  cpu time    3.0799: real time    3.1041
    SETDIJ:  cpu time    0.0637: real time    0.0640
    TRIAL :  cpu time    0.8747: real time    0.8835
    CORREC:  cpu time    3.4298: real time    3.4576
    CHARGE:  cpu time    0.1157: real time    0.1169
    --------------------------------------------
      LOOP:  cpu time    7.6046: real time    7.6683

 eigenvalue-minimisations  :     0
 total energy-change (2. order) :-0.3120572E-02  (-0.1062616E-02)
 number of electron     216.0000000 magnetization 
 augmentation part       -0.4137127 magnetization 

 Free energy of the ion-electron system (eV)
  ---------------------------------------------------
  alpha Z        PSCENC =        59.93625244
  Ewald energy   TEWEN  =     29907.56189182
  -Hartree energ DENC   =    -36960.01391657
  -exchange      EXHF   =         0.00000000
  -V(xc)+E(xc)   XCENC  =       444.00075105
  PAW double counting   =    107099.77104402  -106806.28660794
  entropy T*S    EENTRO =        -0.00000000
  eigenvalues    EBANDS =     -2577.40258464
  atomic energy  EATOM  =      8415.03548706
  ---------------------------------------------------
  free energy    TOTEN  =      -417.39768275 eV

  energy without entropy =     -417.39768275  energy(sigma->0) =     -417.39768275


--------------------------------------------------------------------------------------------------------




--------------------------------------- Iteration      1(  15)  ---------------------------------------


    POTLOK:  cpu time    3.0884: real time    3.1130
    SETDIJ:  cpu time    0.0653: real time    0.0656
    TRIAL :  cpu time    0.8521: real time    0.8608
    CORREC:  cpu time    3.4319: real time    3.4609
    CHARGE:  cpu time    0.1154: real time    0.1166
    --------------------------------------------
      LOOP:  cpu time    7.5983: real time    7.6749

 eigenvalue-minimisations  :     0
 total energy-change (2. order) :-0.1066178E-02  (-0.4919162E-03)
 number of electron     216.0000000 magnetization 
 augmentation part       -0.4132610 magnetization 

 Free energy of the ion-electron system (eV)
  ---------------------------------------------------
  alpha Z        PSCENC =        59.93625244
  Ewald energy   TEWEN  =     29907.56189182
  -Hartree energ DENC   =    -36959.62906377
  -exchange      EXHF   =         0.00000000
  -V(xc)+E(xc)   XCENC  =       443.98146077
  PAW double counting   =    107102.08924455  -106808.60308582
  entropy T*S    EENTRO =        -0.00000000
  eigenvalues    EBANDS =     -2577.77093599
  atomic energy  EATOM  =      8415.03548706
  ---------------------------------------------------
  free energy    TOTEN  =      -417.39874893 eV

  energy without entropy =     -417.39874893  energy(sigma->0) =     -417.39874893


--------------------------------------------------------------------------------------------------------




--------------------------------------- Iteration      1(  16)  ---------------------------------------


    POTLOK:  cpu time    3.0704: real time    3.0943
    SETDIJ:  cpu time    0.0646: real time    0.0649
    TRIAL :  cpu time    0.8545: real time    0.8635
    CORREC:  cpu time    3.4248: real time    3.4522
    CHARGE:  cpu time    0.1157: real time    0.1169
    --------------------------------------------
      LOOP:  cpu time    7.5618: real time    7.6288

 eigenvalue-minimisations  :     0
 total energy-change (2. order) :-0.4944061E-03  (-0.2443010E-03)
 number of electron     216.0000000 magnetization 
 augmentation part       -0.4131280 magnetization 

 Free energy of the ion-electron system (eV)
  ---------------------------------------------------
  alpha Z        PSCENC =        59.93625244
  Ewald energy   TEWEN  =     29907.56189182
  -Hartree energ DENC   =    -36960.01600498
  -exchange      EXHF   =         0.00000000
  -V(xc)+E(xc)   XCENC  =       443.99584733
  PAW double counting   =    107050.52786835  -106757.04377089
  entropy T*S    EENTRO =        -0.00000000
  eigenvalues    EBANDS =     -2577.39681448
  atomic energy  EATOM  =      8415.03548706
  ---------------------------------------------------
  free energy    TOTEN  =      -417.39924333 eV

  energy without entropy =     -417.39924333  energy(sigma->0) =     -417.39924333


--------------------------------------------------------------------------------------------------------




--------------------------------------- Iteration      1(  17)  ---------------------------------------


    POTLOK:  cpu time    3.0732: real time    3.0969
    SETDIJ:  cpu time    0.0657: real time    0.0660
    TRIAL :  cpu time    0.8489: real time    0.8628
    CORREC:  cpu time    3.4261: real time    3.4537
    CHARGE:  cpu time    0.1182: real time    0.1194
    --------------------------------------------
      LOOP:  cpu time    7.5803: real time    7.6631

 eigenvalue-minimisations  :     0
 total energy-change (2. order) :-0.2456100E-03  (-0.1122894E-03)
 number of electron     216.0000000 magnetization 
 augmentation part       -0.4131578 magnetization 

 Free energy of the ion-electron system (eV)
  ---------------------------------------------------
  alpha Z        PSCENC =        59.93625244
  Ewald energy   TEWEN  =     29907.56189182
  -Hartree energ DENC   =    -36960.07023452
  -exchange      EXHF   =         0.00000000
  -V(xc)+E(xc)   XCENC  =       443.99441845
  PAW double counting   =    107001.40933467  -106707.92436233
  entropy T*S    EENTRO =        -0.00000000
  eigenvalues    EBANDS =     -2577.34227655
  atomic energy  EATOM  =      8415.03548706
  ---------------------------------------------------
  free energy    TOTEN  =      -417.39948894 eV

  energy without entropy =     -417.39948894  energy(sigma->0) =     -417.39948894


--------------------------------------------------------------------------------------------------------




--------------------------------------- Iteration      1(  18)  ---------------------------------------


    POTLOK:  cpu time    3.0718: real time    3.0968
    SETDIJ:  cpu time    0.0650: real time    0.0652
    TRIAL :  cpu time    0.8707: real time    0.8797
    CORREC:  cpu time    3.4329: real time    3.4613
    CHARGE:  cpu time    0.1174: real time    0.1187
    --------------------------------------------
      LOOP:  cpu time    7.6091: real time    7.6760

 eigenvalue-minimisations  :     0
 total energy-change (2. order) :-0.1122357E-03  (-0.4191539E-04)
 number of electron     216.0000000 magnetization 
 augmentation part       -0.4133376 magnetization 

 Free energy of the ion-electron system (eV)
  ---------------------------------------------------
  alpha Z        PSCENC =        59.93625244
  Ewald energy   TEWEN  =     29907.56189182
  -Hartree energ DENC   =    -36960.13234799
  -exchange      EXHF   =         0.00000000
  -V(xc)+E(xc)   XCENC  =       443.99781403
  PAW double counting   =    106988.53569029  -106695.05050663
  entropy T*S    EENTRO =        -0.00000000
  eigenvalues    EBANDS =     -2577.28388222
  atomic energy  EATOM  =      8415.03548706
  ---------------------------------------------------
  free energy    TOTEN  =      -417.39960118 eV

  energy without entropy =     -417.39960118  energy(sigma->0) =     -417.39960118


--------------------------------------------------------------------------------------------------------




--------------------------------------- Iteration      1(  19)  ---------------------------------------


    POTLOK:  cpu time    3.0860: real time    3.1116
    SETDIJ:  cpu time    0.0652: real time    0.0655
    TRIAL :  cpu time    0.8541: real time    0.8635
    CORREC:  cpu time    3.4262: real time    3.4571
    CHARGE:  cpu time    0.1149: real time    0.1161
    --------------------------------------------
      LOOP:  cpu time    7.5502: real time    7.7021

 eigenvalue-minimisations  :     0
 total energy-change (2. order) :-0.4146007E-04  (-0.1790806E-04)
 number of electron     216.0000000 magnetization 
 augmentation part       -0.4134186 magnetization 

 Free energy of the ion-electron system (eV)
  ---------------------------------------------------
  alpha Z        PSCENC =        59.93625244
  Ewald energy   TEWEN  =     29907.56189182
  -Hartree energ DENC   =    -36960.10933464
  -exchange      EXHF   =         0.00000000
  -V(xc)+E(xc)   XCENC  =       443.99630588
  PAW double counting   =    106999.12990760  -106705.64387901
  entropy T*S    EENTRO =        -0.00000000
  eigenvalues    EBANDS =     -2577.30627380
  atomic energy  EATOM  =      8415.03548706
  ---------------------------------------------------
  free energy    TOTEN  =      -417.39964264 eV

  energy without entropy =     -417.39964264  energy(sigma->0) =     -417.39964264


--------------------------------------------------------------------------------------------------------




--------------------------------------- Iteration      1(  20)  ---------------------------------------


    POTLOK:  cpu time    3.0690: real time    3.0956
    SETDIJ:  cpu time    0.0650: real time    0.0653
    TRIAL :  cpu time    0.8520: real time    0.8628
    CORREC:  cpu time    3.4256: real time    3.4583
    CHARGE:  cpu time    0.1150: real time    0.1163
    --------------------------------------------
      LOOP:  cpu time    7.6187: real time    7.6933

 eigenvalue-minimisations  :     0
 total energy-change (2. order) :-0.1747478E-04  (-0.8210625E-05)
 number of electron     216.0000000 magnetization 
 augmentation part       -0.4134446 magnetization 

 Free energy of the ion-electron system (eV)
  ---------------------------------------------------
  alpha Z        PSCENC =        59.93625244
  Ewald energy   TEWEN  =     29907.56189182
  -Hartree energ DENC   =    -36960.14496358
  -exchange      EXHF   =         0.00000000
  -V(xc)+E(xc)   XCENC  =       443.99763516
  PAW double counting   =    107010.10878468  -106716.62277952
  entropy T*S    EENTRO =        -0.00000000
  eigenvalues    EBANDS =     -2577.27196818
  atomic energy  EATOM  =      8415.03548706
  ---------------------------------------------------
  free energy    TOTEN  =      -417.39966012 eV

  energy without entropy =     -417.39966012  energy(sigma->0) =     -417.39966012


--------------------------------------------------------------------------------------------------------




--------------------------------------- Iteration      1(  21)  ---------------------------------------


    POTLOK:  cpu time    3.0712: real time    3.0959
    SETDIJ:  cpu time    0.0651: real time    0.0653
    TRIAL :  cpu time    0.8538: real time    0.8620
    CORREC:  cpu time    3.4327: real time    3.4690
    CHARGE:  cpu time    0.1169: real time    0.1181
    --------------------------------------------
      LOOP:  cpu time    7.6030: real time    7.6883

 eigenvalue-minimisations  :     0
 total energy-change (2. order) :-0.8068426E-05  (-0.4239748E-05)
 number of electron     216.0000000 magnetization 
 augmentation part       -0.4134174 magnetization 

 Free energy of the ion-electron system (eV)
  ---------------------------------------------------
  alpha Z        PSCENC =        59.93625244
  Ewald energy   TEWEN  =     29907.56189182
  -Hartree energ DENC   =    -36960.11276925
  -exchange      EXHF   =         0.00000000
  -V(xc)+E(xc)   XCENC  =       443.99611164
  PAW double counting   =    107013.24558886  -106719.75951296
  entropy T*S    EENTRO =        -0.00000000
  eigenvalues    EBANDS =     -2577.30271780
  atomic energy  EATOM  =      8415.03548706
  ---------------------------------------------------
  free energy    TOTEN  =      -417.39966818 eV

  energy without entropy =     -417.39966818  energy(sigma->0) =     -417.39966818


--------------------------------------------------------------------------------------------------------




--------------------------------------- Iteration      1(  22)  ---------------------------------------


    POTLOK:  cpu time    3.1050: real time    3.1284
    SETDIJ:  cpu time    0.0650: real time    0.0652
    TRIAL :  cpu time    0.8547: real time    0.8634
    CORREC:  cpu time    3.4295: real time    3.4669
    CHARGE:  cpu time    0.1153: real time    0.1166
    --------------------------------------------
      LOOP:  cpu time    7.5924: real time    7.6689

 eigenvalue-minimisations  :     0
 total energy-change (2. order) :-0.4209185E-05  (-0.1845806E-05)
 number of electron     216.0000000 magnetization 
 augmentation part       -0.4134089 magnetization 

 Free energy of the ion-electron system (eV)
  ---------------------------------------------------
  alpha Z        PSCENC =        59.93625244
  Ewald energy   TEWEN  =     29907.56189182
  -Hartree energ DENC   =    -36960.12034199
  -exchange      EXHF   =         0.00000000
  -V(xc)+E(xc)   XCENC  =       443.99661037
  PAW double counting   =    107011.50390192  -106718.01808858
  entropy T*S    EENTRO =        -0.00000000
  eigenvalues    EBANDS =     -2577.29538544
  atomic energy  EATOM  =      8415.03548706
  ---------------------------------------------------
  free energy    TOTEN  =      -417.39967239 eV

  energy without entropy =     -417.39967239  energy(sigma->0) =     -417.39967239


--------------------------------------------------------------------------------------------------------




--------------------------------------- Iteration      1(  23)  ---------------------------------------


    POTLOK:  cpu time    3.0811: real time    3.1107
    SETDIJ:  cpu time    0.0626: real time    0.0629
    TRIAL :  cpu time    0.8546: real time    0.8632
    CORREC:  cpu time    3.4199: real time    3.4510
    CHARGE:  cpu time    0.1152: real time    0.1165
    --------------------------------------------
      LOOP:  cpu time    7.6440: real time    7.7171

 eigenvalue-minimisations  :     0
 total energy-change (2. order) :-0.1862587E-05  (-0.7932016E-06)
 number of electron     216.0000000 magnetization 
 augmentation part       -0.4134037 magnetization 

 Free energy of the ion-electron system (eV)
  ---------------------------------------------------
  alpha Z        PSCENC =        59.93625244
  Ewald energy   TEWEN  =     29907.56189182
  -Hartree energ DENC   =    -36960.10924800
  -exchange      EXHF   =         0.00000000
  -V(xc)+E(xc)   XCENC  =       443.99623336
  PAW double counting   =    107010.07198072  -106716.58615654
  entropy T*S    EENTRO =        -0.00000000
  eigenvalues    EBANDS =     -2577.30611512
  atomic energy  EATOM  =      8415.03548706
  ---------------------------------------------------
  free energy    TOTEN  =      -417.39967426 eV

  energy without entropy =     -417.39967426  energy(sigma->0) =     -417.39967426


--------------------------------------------------------------------------------------------------------




--------------------------------------- Iteration      1(  24)  ---------------------------------------


    POTLOK:  cpu time    3.0655: real time    3.0908
    SETDIJ:  cpu time    0.0653: real time    0.0655
    TRIAL :  cpu time    0.8541: real time    0.8636
    CORREC:  cpu time    3.4294: real time    3.4609
    CHARGE:  cpu time    0.1162: real time    0.1176
    --------------------------------------------
      LOOP:  cpu time    7.6234: real time    7.6968

 eigenvalue-minimisations  :     0
 total energy-change (2. order) :-0.8052302E-06  (-0.3537813E-06)
 number of electron     216.0000000 magnetization 
 augmentation part       -0.4134039 magnetization 

 Free energy of the ion-electron system (eV)
  ---------------------------------------------------
  alpha Z        PSCENC =        59.93625244
  Ewald energy   TEWEN  =     29907.56189182
  -Hartree energ DENC   =    -36960.10655996
  -exchange      EXHF   =         0.00000000
  -V(xc)+E(xc)   XCENC  =       443.99632122
  PAW double counting   =    107009.84814679  -106716.36232176
  entropy T*S    EENTRO =        -0.00000000
  eigenvalues    EBANDS =     -2577.30889268
  atomic energy  EATOM  =      8415.03548706
  ---------------------------------------------------
  free energy    TOTEN  =      -417.39967506 eV

  energy without entropy =     -417.39967506  energy(sigma->0) =     -417.39967506


--------------------------------------------------------------------------------------------------------




--------------------------------------- Iteration      1(  25)  ---------------------------------------


    POTLOK:  cpu time    3.0769: real time    3.1023
    SETDIJ:  cpu time    0.0652: real time    0.0654
    TRIAL :  cpu time    0.8547: real time    0.8633
    CORREC:  cpu time    3.4394: real time    3.4698
    CHARGE:  cpu time    0.1164: real time    0.1176
    --------------------------------------------
      LOOP:  cpu time    7.5899: real time    7.6824

 eigenvalue-minimisations  :     0
 total energy-change (2. order) :-0.3614987E-06  (-0.1622161E-06)
 number of electron     216.0000000 magnetization 
 augmentation part       -0.4134044 magnetization 

 Free energy of the ion-electron system (eV)
  ---------------------------------------------------
  alpha Z        PSCENC =        59.93625244
  Ewald energy   TEWEN  =     29907.56189182
  -Hartree energ DENC   =    -36960.10641849
  -exchange      EXHF   =         0.00000000
  -V(xc)+E(xc)   XCENC  =       443.99634796
  PAW double counting   =    107009.95652926  -106716.47067576
  entropy T*S    EENTRO =        -0.00000000
  eigenvalues    EBANDS =     -2577.30908971
  atomic energy  EATOM  =      8415.03548706
  ---------------------------------------------------
  free energy    TOTEN  =      -417.39967542 eV

  energy without entropy =     -417.39967542  energy(sigma->0) =     -417.39967542


--------------------------------------------------------------------------------------------------------




--------------------------------------- Iteration      1(  26)  ---------------------------------------


    POTLOK:  cpu time    3.0933: real time    3.1200
    SETDIJ:  cpu time    0.0639: real time    0.0642
    TRIAL :  cpu time    0.8574: real time    0.8665
    CORREC:  cpu time    3.4403: real time    3.4857
    CHARGE:  cpu time    0.1158: real time    0.1169
    --------------------------------------------
      LOOP:  cpu time    7.6111: real time    7.6954

 eigenvalue-minimisations  :     0
 total energy-change (2. order) :-0.1654844E-06  (-0.7733694E-07)
 number of electron     216.0000000 magnetization 
 augmentation part       -0.4134019 magnetization 

 Free energy of the ion-electron system (eV)
  ---------------------------------------------------
  alpha Z        PSCENC =        59.93625244
  Ewald energy   TEWEN  =     29907.56189182
  -Hartree energ DENC   =    -36960.10747699
  -exchange      EXHF   =         0.00000000
  -V(xc)+E(xc)   XCENC  =       443.99634199
  PAW double counting   =    107009.99703050  -106716.51115965
  entropy T*S    EENTRO =        -0.00000000
  eigenvalues    EBANDS =     -2577.30804276
  atomic energy  EATOM  =      8415.03548706
  ---------------------------------------------------
  free energy    TOTEN  =      -417.39967559 eV

  energy without entropy =     -417.39967559  energy(sigma->0) =     -417.39967559


--------------------------------------------------------------------------------------------------------




--------------------------------------- Iteration      1(  27)  ---------------------------------------


    POTLOK:  cpu time    3.0663: real time    3.0942
    SETDIJ:  cpu time    0.0635: real time    0.0637
    TRIAL :  cpu time    0.8449: real time    0.8597
    CORREC:  cpu time    3.4260: real time    3.4578
    EDDIAG:  cpu time    0.3249: real time    0.3289
    CHARGE:  cpu time    0.1158: real time    0.1170
    --------------------------------------------
      LOOP:  cpu time    7.8960: real time    7.9890

 eigenvalue-minimisations  :     0
 total energy-change (2. order) :-0.7788185E-07  (-0.2881739E-07)
 number of electron     216.0000000 magnetization 
 augmentation part       -0.4134019 magnetization 

 Free energy of the ion-electron system (eV)
  ---------------------------------------------------
  alpha Z        PSCENC =        59.93625244
  Ewald energy   TEWEN  =     29907.56189182
  -Hartree energ DENC   =    -36960.10995316
  -exchange      EXHF   =         0.00000000
  -V(xc)+E(xc)   XCENC  =       443.99643825
  PAW double counting   =    107010.14911919  -106716.66326617
  entropy T*S    EENTRO =        -0.00000000
  eigenvalues    EBANDS =     -2577.30564511
  atomic energy  EATOM  =      8415.03548706
  ---------------------------------------------------
  free energy    TOTEN  =      -417.39967567 eV

  energy without entropy =     -417.39967567  energy(sigma->0) =     -417.39967567


--------------------------------------------------------------------------------------------------------


  average scaling for gradient   0.8618


 average (electrostatic) potential at core
  the test charge radii are     0.5770  0.5955
  (the norm of the test charge is              1.0000)
       1 -85.6776       2 -85.6771       3 -85.6777       4 -85.6784       5 -85.6764
       6 -85.6763       7 -85.6777       8 -85.6765       9 -85.6768      10 -85.6772
[...]
      21 -85.6762      22 -85.6760      23 -85.6788      24 -85.6788      25 -85.6761
      26 -85.6763      27 -85.6769      28 -85.6778      29 -85.6761      30 -85.6761
      31 -85.6781      32 -85.6775      33 -85.6764      34 -85.6763      35 -85.6764
      36 -85.6765      37 -85.6771      38 -85.6774      39 -85.6773      40 -85.6773
      41 -85.6772      42 -85.6774      43 -85.6769      44 -85.6776      45 -85.6762
      46 -85.6763      47 -85.6763      48 -85.6762      49 -85.6773      50 -85.6769
      51 -89.5684      52-120.0858      53-120.0852
 
 
 
 E-fermi :  -4.0590     XC(G=0):  -2.7974     alpha+bet : -2.1113

 Fermi energy:        -4.0590060027

 k-point     1 :       0.0000    0.0000    0.0000
  band No.  band energies     occupation 
      1     -27.2981      2.00000
      2     -26.3045      2.00000
      3     -22.0916      2.00000
      4     -21.1551      2.00000
      5     -21.1538      2.00000
      6     -21.1535      2.00000
      7     -21.1533      2.00000
      8     -21.1532      2.00000
      9     -21.1528      2.00000
     10     -19.3158      2.00000
     11     -19.3157      2.00000
     12     -19.3155      2.00000
     13     -19.3148      2.00000
     14     -19.3143      2.00000
     15     -19.3141      2.00000
     16     -18.4207      2.00000
     17     -18.4205      2.00000
     18     -18.4201      2.00000
     19     -18.4198      2.00000
     20     -18.4191      2.00000
     21     -18.4189      2.00000
     22     -16.2598      2.00000
     23     -16.2595      2.00000
     24     -16.2587      2.00000
     25     -16.2585      2.00000
     26     -16.2581      2.00000
     27     -16.2580      2.00000
     28     -15.2810      2.00000
     29     -15.2810      2.00000
     30     -15.2800      2.00000
     31     -15.2798      2.00000
     32     -15.2795      2.00000
     33     -15.2794      2.00000
     34     -13.9321      2.00000
     35     -13.9320      2.00000
     36     -13.9313      2.00000
     37     -13.9312      2.00000
     38     -13.9311      2.00000
     39     -13.9309      2.00000
     40     -12.1412      2.00000
     41     -11.5560      2.00000
     42     -11.5558      2.00000
     43     -11.5553      2.00000
     44     -11.5552      2.00000
     45     -11.5541      2.00000
     46     -11.5539      2.00000
     47     -11.4631      2.00000
     48     -11.4630      2.00000
     49     -11.4624      2.00000
     50     -11.4623      2.00000
     51     -11.4622      2.00000
     52     -11.4620      2.00000
     53     -10.9834      2.00000
     54     -10.9208      2.00000
     55     -10.9206      2.00000
     56     -10.2487      2.00000
     57     -10.0931      2.00000
     58     -10.0929      2.00000
     59     -10.0914      2.00000
     60     -10.0910      2.00000
     61     -10.0908      2.00000
     62     -10.0907      2.00000
     63      -9.1323      2.00000
     64      -9.1315      2.00000
     65      -9.1314      2.00000
     66      -9.1307      2.00000
     67      -9.1306      2.00000
     68      -9.1305      2.00000
     69      -8.8289      2.00000
     70      -8.8280      2.00000
     71      -8.8276      2.00000
     72      -8.8275      2.00000
     73      -8.8272      2.00000
     74      -8.8269      2.00000
     75      -8.7695      2.00000
     76      -8.7692      2.00000
     77      -8.7685      2.00000
     78      -8.7684      2.00000
     79      -8.7682      2.00000
     80      -8.7674      2.00000
     81      -7.3838      2.00000
     82      -7.3837      2.00000
     83      -7.1797      2.00000
     84      -7.1780      2.00000
     85      -7.1778      2.00000
     86      -7.1775      2.00000
     87      -7.1765      2.00000
     88      -7.1764      2.00000
     89      -7.0015      2.00000
     90      -7.0012      2.00000
     91      -7.0011      2.00000
     92      -7.0007      2.00000
     93      -7.0004      2.00000
     94      -7.0001      2.00000
     95      -6.1042      2.00000
     96      -6.1041      2.00000
     97      -6.1037      2.00000
     98      -6.1035      2.00000
     99      -6.1030      2.00000
    100      -6.1028      2.00000
    101      -5.6999      2.00000
    102      -5.6977      2.00000
    103      -4.1199      2.00000
    104      -4.1195      2.00000
    105      -4.1191      2.00000
    106      -4.1190      2.00000
    107      -4.1184      2.00000
    108      -4.1183      2.00000
    109      -1.3195      0.00000
    110      -1.3193      0.00000
    111      -1.3189      0.00000
    112      -1.3187      0.00000
    113      -1.3181      0.00000
    114      -1.3178      0.00000
    115       0.1549      0.00000
    116       0.5167      0.00000
    117       0.5416      0.00000
    118       0.5419      0.00000
    119       0.5424      0.00000
    120       0.5425      0.00000
    121       0.5426      0.00000
    122       0.5441      0.00000
    123       1.0238      0.00000
    124       1.1094      0.00000
    125       1.4540      0.00000
    126       1.4658      0.00000
    127       1.4696      0.00000
    128       1.4977      0.00000
    129       1.5004      0.00000
    130       1.5044      0.00000
    131       1.7270      0.00000
    132       1.7685      0.00000
    133       2.1343      0.00000
    134       2.1647      0.00000
    135       2.2861      0.00000
    136       2.2884      0.00000


--------------------------------------------------------------------------------------------------------


 soft charge-density along one line, spin component           1
         0         1         2         3         4         5         6         7         8         9
 total charge-density along one line
 
 pseudopotential strength for first ion, spin component:           1
 12.708  21.385   0.000   0.000   0.000   0.000   0.000   0.000
 21.385  35.986   0.000   0.000   0.000   0.000   0.000   0.000
  0.000   0.000  -3.191  -0.000   0.000  -5.720  -0.000   0.000
  0.000   0.000  -0.000  -3.194  -0.000  -0.000  -5.723  -0.000
  0.000   0.000   0.000  -0.000  -3.191   0.000  -0.000  -5.720
  0.000   0.000  -5.720  -0.000   0.000 -10.228  -0.000   0.000
  0.000   0.000  -0.000  -5.723  -0.000  -0.000 -10.235  -0.000
  0.000   0.000   0.000  -0.000  -5.720   0.000  -0.000 -10.228
 total augmentation occupancy for first ion, spin component:           1
  7.653  -2.660  -0.000  -0.002  -0.000   0.000   0.001   0.000
 -2.660   0.962   0.000   0.001   0.000  -0.000  -0.000  -0.000
 -0.000   0.000   7.069  -0.008   0.000  -2.370   0.003  -0.000
 -0.002   0.001  -0.008   3.114  -0.000   0.003  -0.813   0.000
 -0.000   0.000   0.000  -0.000   7.068  -0.000   0.000  -2.370
  0.000  -0.000  -2.370   0.003  -0.000   0.809  -0.001   0.000
  0.001  -0.000   0.003  -0.813   0.000  -0.001   0.219  -0.000
  0.000  -0.000  -0.000   0.000  -2.370   0.000  -0.000   0.809


------------------------ aborting loop because EDIFF is reached ----------------------------------------


    FORLOC:  cpu time    0.0505: real time    0.0510
    FORNL :  cpu time    0.6759: real time    0.6798
    FORCOR:  cpu time    3.1450: real time    3.1715
    OFIELD:  cpu time    0.0015: real time    0.0015

 VOLUME and BASIS-vectors are now :
 -----------------------------------------------------------------------------
  energy-cutoff  :     1000.00
  volume of cell :     2631.08
      direct lattice vectors                 reciprocal lattice vectors
    12.325000000  0.000000000  0.000000000     0.081135903  0.046843835  0.000000000
    -6.162500000 10.673763102  0.000000000     0.000000000  0.093687670  0.000000000
     0.000000000  0.000000000 20.000000000     0.000000000  0.000000000  0.050000000

  length of vectors
    12.325000000 12.325000000 20.000000000     0.093687670  0.093687670  0.050000000


 FORCES acting on ions:
    Electron-Ion                     Ewald-Force                    Non-Local-Force
 -----------------------------------------------------------------------------------------------
   0.114E+01 0.995E+00 0.101E+02   -.114E+01 -.996E+00 -.102E+02   0.487E-02 -.660E-03 0.623E-02
   0.157E+01 0.815E+00 0.114E+02   -.157E+01 -.812E+00 -.114E+02   0.356E-02 -.315E-02 -.544E-02
   0.635E+00 0.173E+01 0.116E+02   -.636E+00 -.173E+01 -.116E+02   -.154E-03 0.120E-01 -.569E-03
   0.797E+00 0.116E+01 0.143E+02   -.796E+00 -.115E+01 -.143E+02   0.119E-01 0.885E-03 -.145E-01
   0.124E+01 0.311E+00 0.106E+02   -.124E+01 -.312E+00 -.106E+02   -.225E-03 -.552E-02 0.350E-02
   0.126E+01 -.277E+00 0.107E+02   -.127E+01 0.278E+00 -.107E+02   -.624E-02 0.331E-02 -.261E-02
   0.154E+01 0.614E+00 0.141E+02   -.154E+01 -.614E+00 -.141E+02   0.123E-01 -.192E-01 -.626E-02
   0.154E+01 -.518E+00 0.153E+02   -.154E+01 0.521E+00 -.153E+02   -.652E-02 -.561E-02 -.602E-02
   -.767E+00 0.163E+01 0.120E+02   0.771E+00 -.164E+01 -.120E+02   -.410E-03 -.125E-01 -.469E-02
   -.103E+01 0.886E+00 0.145E+02   0.103E+01 -.888E+00 -.145E+02   -.262E-01 0.151E-01 0.224E-02
   0.326E+00 -.342E+00 0.967E+01   -.323E+00 0.342E+00 -.967E+01   0.370E-02 -.277E-02 0.301E-03
   0.311E+00 -.261E+00 0.940E+01   -.310E+00 0.261E+00 -.941E+01   -.689E-02 0.340E-02 0.619E-02
   0.515E+00 -.123E+01 0.162E+02   -.516E+00 0.123E+01 -.162E+02   0.269E-01 -.795E-02 -.273E-02
   0.320E+00 -.180E+01 0.131E+02   -.325E+00 0.181E+01 -.131E+02   0.406E-02 0.631E-02 -.159E-01
   -.115E+01 0.694E+00 0.101E+02   0.115E+01 -.695E+00 -.101E+02   0.728E-02 -.385E-02 0.755E-02
   -.148E+01 0.425E+00 0.105E+02   0.148E+01 -.426E+00 -.105E+02   -.200E-02 0.539E-02 -.450E-02
   -.212E+00 -.849E-01 0.898E+01   0.216E+00 0.830E-01 -.898E+01   -.391E-03 0.408E-03 0.218E-02
   0.942E-01 0.725E+00 0.913E+01   -.934E-01 -.726E+00 -.914E+01   -.301E-02 0.167E-02 0.933E-02
   -.296E+00 -.174E+01 0.115E+02   0.295E+00 0.174E+01 -.115E+02   0.617E-02 -.193E-02 0.433E-03
   -.174E+00 -.106E+01 0.988E+01   0.171E+00 0.106E+01 -.988E+01   0.127E-03 -.119E-02 -.543E-03
   0.161E+01 -.697E+00 0.123E+02   -.161E+01 0.698E+00 -.123E+02   -.134E-02 -.247E-02 -.163E-01
   0.114E+01 -.920E+00 0.112E+02   -.115E+01 0.921E+00 -.112E+02   -.671E-02 0.521E-02 -.194E-02
   -.277E+00 0.495E+00 0.163E+02   0.274E+00 -.494E+00 -.163E+02   -.103E-01 0.106E-01 0.607E-03
   -.386E+00 -.784E+00 0.163E+02   0.388E+00 0.783E+00 -.162E+02   0.121E-01 -.149E-01 -.108E-01
   0.625E+00 -.228E+00 0.975E+01   -.623E+00 0.227E+00 -.975E+01   0.361E-02 -.262E-02 -.288E-02
   0.173E+00 0.538E+00 0.962E+01   -.173E+00 -.538E+00 -.963E+01   -.525E-02 0.351E-02 0.583E-02
   -.178E+01 0.204E+00 0.125E+02   0.178E+01 -.207E+00 -.125E+02   0.114E-01 0.798E-02 -.215E-02
   -.167E+01 -.679E+00 0.119E+02   0.168E+01 0.679E+00 -.119E+02   -.895E-02 0.908E-02 0.101E-02
   0.638E+00 -.131E+01 0.114E+02   -.638E+00 0.131E+01 -.114E+02   0.461E-02 0.205E-02 -.652E-02
   0.558E-01 -.577E+00 0.101E+02   -.582E-01 0.579E+00 -.101E+02   -.473E-02 0.232E-02 -.194E-02
   -.119E+01 -.121E+01 0.131E+02   0.119E+01 0.121E+01 -.131E+02   -.120E-01 -.814E-02 -.125E-01
   -.873E+00 -.165E+01 0.114E+02   0.874E+00 0.165E+01 -.114E+02   0.619E-03 -.130E-02 0.216E-02
   0.730E-01 0.353E+00 0.929E+01   -.732E-01 -.353E+00 -.929E+01   0.514E-02 -.468E-02 0.730E-02
   0.207E+00 0.321E+00 0.954E+01   -.210E+00 -.320E+00 -.954E+01   -.223E-02 0.460E-02 -.791E-03
   -.783E+00 0.144E+00 0.979E+01   0.786E+00 -.145E+00 -.979E+01   0.401E-02 -.240E-02 0.626E-02
   -.694E+00 -.317E+00 0.970E+01   0.694E+00 0.317E+00 -.970E+01   -.413E-02 0.240E-02 0.406E-02
   -.131E+01 -.706E+00 0.101E+02   0.132E+01 0.704E+00 -.101E+02   -.122E-02 0.966E-03 0.358E-02
   -.873E+00 -.698E+00 0.951E+01   0.874E+00 0.699E+00 -.952E+01   -.405E-02 0.124E-02 0.906E-02
   -.792E+00 -.100E+01 0.978E+01   0.793E+00 0.101E+01 -.978E+01   -.302E-02 0.173E-03 0.482E-02
   -.118E+00 -.278E+00 0.926E+01   0.119E+00 0.278E+00 -.926E+01   0.189E-02 0.548E-03 0.734E-02
   0.300E+00 0.752E+00 0.927E+01   -.301E+00 -.753E+00 -.927E+01   -.398E-02 0.177E-02 0.693E-02
   0.904E+00 0.138E+01 0.102E+02   -.903E+00 -.138E+01 -.102E+02   -.537E-03 -.758E-03 0.770E-02
   0.994E-01 0.124E+01 0.957E+01   -.959E-01 -.124E+01 -.958E+01   -.323E-03 0.940E-03 0.248E-02
   -.900E-02 0.180E+01 0.111E+02   0.102E-01 -.180E+01 -.111E+02   -.814E-02 0.204E-02 0.539E-02
   -.239E+00 0.444E+00 0.985E+01   0.241E+00 -.446E+00 -.985E+01   0.403E-02 -.291E-02 0.178E-02
   -.865E+00 0.108E+01 0.105E+02   0.866E+00 -.108E+01 -.105E+02   -.630E-02 0.408E-03 -.103E-02
   -.242E+00 -.547E+00 0.974E+01   0.242E+00 0.547E+00 -.974E+01   0.629E-02 -.137E-02 0.610E-02
   -.495E+00 0.175E+00 0.930E+01   0.494E+00 -.174E+00 -.930E+01   -.359E-02 0.325E-02 -.264E-02
   0.501E-01 -.336E+00 0.930E+01   -.506E-01 0.337E+00 -.930E+01   0.432E-02 -.317E-02 0.579E-02
   0.537E+00 0.383E+00 0.928E+01   -.539E+00 -.381E+00 -.928E+01   -.941E-04 0.167E-02 0.338E-02
   0.148E-03 0.246E-01 -.138E+03   -.413E-02 -.210E-01 0.138E+03   -.292E-02 0.191E-02 -.258E-02
   -.229E+03 0.156E+03 -.218E+03   0.279E+03 -.190E+03 0.221E+03   -.512E+02 0.348E+02 -.344E+01
   0.229E+03 -.156E+03 -.198E+03   -.279E+03 0.190E+03 0.195E+03   0.512E+02 -.348E+02 0.309E+01
 -----------------------------------------------------------------------------------------------
   -.710E-02 0.137E-01 0.344E+00   0.568E-13 0.284E-13 0.853E-13   0.713E-02 -.137E-01 -.345E+00
 
 
 POSITION                                       TOTAL-FORCE (eV/Angst)
 -----------------------------------------------------------------------------------
     11.98348      0.00342      0.01417         0.003191     -0.001659     -0.000947
     -0.34154      1.42665      0.01100        -0.000770     -0.000031     -0.003249
      2.12355      0.00315      0.01249        -0.001727      0.010754     -0.006180
      2.12326      1.42653      0.00641         0.013394      0.001240     -0.008174
     10.75099      2.13819      0.01213         0.000342     -0.005674     -0.000099
     -1.57382      3.56123      0.01110        -0.008963      0.004765     -0.001379
      0.89078      2.13854      0.00548         0.009547     -0.019109      0.002378
      0.89099      3.56147      0.00181        -0.011989     -0.002379      0.011517
      4.58864      0.00346      0.01135         0.003716     -0.015962     -0.003429
      4.58894      1.42623      0.00646        -0.023611      0.013294      0.013620
      9.51854      4.27281      0.01369         0.006604     -0.003110      0.000226
     -2.80632      5.69591      0.01434        -0.006531      0.003395      0.000712
      2.12300      4.27302      0.00000         0.025091     -0.004982      0.020042
      2.12335      5.69594      0.00581        -0.000618      0.009238     -0.002564
      7.05344      0.00333      0.01399         0.009374     -0.005311     -0.000410
      7.05353      1.42635      0.01368        -0.001651      0.004930     -0.003588
      8.28610      6.40752      0.01601         0.003009     -0.001493     -0.000724
     -4.03885      7.83070      0.01636        -0.002201      0.000848     -0.000088
      3.35586      6.40753      0.01007         0.005488      0.000540     -0.001211
      3.35599      7.83072      0.01320        -0.003240      0.000081     -0.000599
     -0.34146      4.27290      0.00723        -0.001907     -0.001427     -0.004367
     -0.34138      5.69591      0.00946        -0.009189      0.006540     -0.001077
      3.35624      2.13791      0.00222        -0.013605      0.011996      0.015639
      3.35573      3.56155      0.00139         0.013669     -0.015960      0.008290
     -1.57395      6.40758      0.01311         0.005429     -0.003977     -0.000529
     -1.57385      7.83068      0.01438        -0.004826      0.003763      0.000017
      5.82093      2.13784      0.01033         0.016191      0.005168     -0.002920
      5.82114      3.56097      0.01156        -0.006327      0.008537     -0.003558
      0.89092      6.40755      0.00907         0.004531      0.002329     -0.002187
      0.89106      7.83068      0.01235        -0.006876      0.003891      0.000389
      4.58871      4.27293      0.00850        -0.012961     -0.006497     -0.010592
      4.58852      5.69606      0.01149         0.001959     -0.001100     -0.003862
      9.51845      0.00337      0.01490         0.004741     -0.004673      0.000140
      9.51855      1.42644      0.01438        -0.005150      0.005456     -0.000244
      8.28593      2.13803      0.01453         0.006755     -0.003403      0.000592
      8.28613      3.56115      0.01464        -0.004317      0.002201     -0.000035
      7.05356      4.27269      0.01457         0.002732     -0.001105     -0.000551
      7.05362      5.69588      0.01553        -0.002474      0.001552     -0.000076
      5.82112      6.40755      0.01489        -0.002903      0.001613      0.000013
      5.82102      7.83073      0.01579         0.002705      0.000287     -0.000276
      7.05363      8.54227      0.01631        -0.004653      0.001226      0.001127
     -5.27149      9.96549      0.01495         0.000091     -0.002052     -0.002066
     -2.80638      8.54234      0.01558         0.003221     -0.001450     -0.001079
     -2.80627      9.96553      0.01362        -0.006755     -0.000126     -0.003672
     -0.34149      8.54239      0.01378         0.005823     -0.004921      0.000252
     -0.34138      9.96550      0.01354        -0.005855     -0.000099     -0.001127
      2.12343      8.54232      0.01336         0.005851     -0.001524      0.000698
      2.12354      9.96544      0.01469        -0.005197      0.003834     -0.001769
      4.58846      8.54235      0.01505         0.003686     -0.002799      0.001013
      4.58853      9.96550      0.01517        -0.002850      0.003367      0.000185
      3.04930      2.68154      7.49154        -0.006778      0.005485      0.031917
      4.02070      2.02068      7.55596        -0.556175      0.378006     -0.053584
      2.07767      3.34267      7.43208         0.562964     -0.383516      0.017444
 -----------------------------------------------------------------------------------
    total drift:                                0.000028      0.000018     -0.001213


--------------------------------------------------------------------------------------------------------



  FREE ENERGIE OF THE ION-ELECTRON SYSTEM (eV)
  ---------------------------------------------------
  free  energy   TOTEN  =      -417.39967567 eV

  energy  without entropy=     -417.39967567  energy(sigma->0) =     -417.39967567
 


--------------------------------------------------------------------------------------------------------


    POTLOK:  cpu time    3.1406: real time    3.1700


--------------------------------------------------------------------------------------------------------


 writing wavefunctions
     LOOP+:  cpu time  210.5576: real time  213.1441
    4ORBIT:  cpu time    0.0000: real time    0.0000

 total amount of memory used by VASP MPI-rank0    85439. kBytes
=======================================================================

   base      :      30000. kBytes
   nonl-proj :       6586. kBytes
   fftplans  :      14299. kBytes
   grid      :      23511. kBytes
   one-center:          6. kBytes
   wavefun   :      11037. kBytes
 
  
  
 General timing and accounting informations for this job:
 ========================================================
  
                  Total CPU time used (sec):      245.105
                            User time (sec):      224.912
                          System time (sec):       20.193
                         Elapsed time (sec):      249.516
  
                   Maximum memory used (kb):      677996.
                   Average memory used (kb):          N/A
  
                          Minor page faults:       369414
                          Major page faults:           95
                 Voluntary context switches:         3754
