 vasp.6.2.1 16May21 (build Nov 06 2021 14:46:37) complex                        
  
 executed on             LinuxIFC date 2025.04.16  18:29:00
 running on  112 total cores
 distrk:  each k-point on  112 cores,    1 groups
 distr:  one band on NCORE=  28 cores,    4 groups


--------------------------------------------------------------------------------------------------------


 INCAR:
   ALGO = Conjugate
   NPAR = 4
   ISMEAR = 0
   SIGMA = 0.01
   PREC = Accurate
   EDIFF = 1E-7
   ENCUT = 1000
   ISIF = 0
   GGA = MK
   PARAM1 = 0.1234
   PARAM2 = 1.0000
   LUSE_VDW = .TRUE.
   AGGAC = 0.0000
   LASPH = .TRUE.
   SYMPREC = 1E-7

 POTCAR:    PAW_PBE C_h 06Feb2004                 
 POTCAR:    PAW_PBE O_h 06Feb2004                 
 -----------------------------------------------------------------------------
|                                                                             |
|           W    W    AA    RRRRR   N    N  II  N    N   GGGG   !!!           |
|           W    W   A  A   R    R  NN   N  II  NN   N  G    G  !!!           |
|           W    W  A    A  R    R  N N  N  II  N N  N  G       !!!           |
|           W WW W  AAAAAA  RRRRR   N  N N  II  N  N N  G  GGG   !            |
|           WW  WW  A    A  R   R   N   NN  II  N   NN  G    G                |
|           W    W  A    A  R    R  N    N  II  N    N   GGGG   !!!           |
|                                                                             |
|     For optimal performance we recommend to set                             |
|       NCORE = 2 up to number-of-cores-per-socket                            |
|     NCORE specifies how many cores store one orbital (NPAR=cpu/NCORE).      |
|     This setting can greatly improve the performance of VASP for DFT.       |
|     The default, NCORE=1 might be grossly inefficient on modern             |
|     multi-core architectures or massively parallel machines. Do your        |
|     own testing! More info at https://www.vasp.at/wiki/index.php/NCORE      |
|     Unfortunately you need to use the default for GW and RPA                |
|     calculations (for HF NCORE is supported but not extensively tested      |
|     yet).                                                                   |
|                                                                             |
 -----------------------------------------------------------------------------

 -----------------------------------------------------------------------------
|                                                                             |
|               ----> ADVICE to this user running VASP <----                  |
|                                                                             |
|     You have switched on vdW-DFT.                                           |
|     This routine was written and supplied by Jiri Klimes. We recommend      |
|     that you carefully read and cite the following publications:            |
|       J. Klimes, D.R. Bowler, A. Michelides                                 |
|          J. Phys.: Cond Matt. 22 022201 (2010)                              |
|       J. Klimes, D.R. Bowler, A. Michelides                                 |
|          Phys. Rev. B. 83, 195131 (2011)                                    |
|     and references therein.                                                 |
|                                                                             |
 -----------------------------------------------------------------------------

 POTCAR:    PAW_PBE C_h 06Feb2004                 
   VRHFIN =C: s2p2                                                                                  
   LEXCH  = PE                                                                                      
   EATOM  =   147.1560 eV,   10.8157 Ry                                                             
                                                                                                    
   TITEL  = PAW_PBE C_h 06Feb2004                                                                   
   LULTRA =        F    use ultrasoft PP ?                                                          
   IUNSCR =        1    unscreen: 0-lin 1-nonlin 2-no                                               
   RPACOR =    0.800    partial core radius                                                         
   POMASS =   12.011; ZVAL   =    4.000    mass and valenz                                          
   RCORE  =    1.100    outmost cutoff radius                                                       
   RWIGS  =    1.630; RWIGS  =    0.863    wigner-seitz radius (au A)                               
   ENMAX  =  700.000; ENMIN  =  500.000 eV                                                          
   ICORE  =        2    local potential                                                             
   LCOR   =        T    correct aug charges                                                         
   LPAW   =        T    paw PP                                                                      
   EAUG   =  946.768                                                                                
   DEXC   =    0.000                                                                                
   RMAX   =    1.128    core radius for proj-oper                                                   
   RAUG   =    1.300    factor for augmentation sphere                                              
   RDEP   =    1.162    radius for radial grids                                                     
   RDEPT  =    1.088    core radius for aug-charge                                                  
                                                                                                    
   Atomic configuration                                                                             
    4 entries                                                                                       
     n  l   j            E        occ.                                                              
     1  0  0.50      -273.3789   2.0000                                                             
     2  0  0.50       -13.7508   2.0000                                                             
     2  1  0.50        -5.2854   2.0000                                                             
     3  2  1.50        -5.4423   0.0000                                                             
   Description                                                                                      
     l       E           TYP  RCUT    TYP  RCUT                                                     
     0    -13.7508458     23  1.100                                                                 
     0     -8.2022199     23  1.100                                                                 
     1     -5.2854383     23  1.100                                                                 
     1      1.1560700     23  1.100                                                                 
     2     -5.4423304      7  1.100                                                                 
  local pseudopotential read in
  partial core-charges read in
  partial kinetic energy density read in
  atomic valenz-charges read in
  non local Contribution for L=           0  read in
    real space projection operators read in
  non local Contribution for L=           0  read in
    real space projection operators read in
  non local Contribution for L=           1  read in
    real space projection operators read in
  non local Contribution for L=           1  read in
    real space projection operators read in
    PAW grid and wavefunctions read in
 
   number of l-projection  operators is LMAX  =           4
   number of lm-projection operators is LMMAX =           8
 
 POTCAR:    PAW_PBE O_h 06Feb2004                 
   VRHFIN =O: s2p4                                                                                  
   LEXCH  = PE                                                                                      
   EATOM  =   432.3788 eV,   31.7789 Ry                                                             
                                                                                                    
   TITEL  = PAW_PBE O_h 06Feb2004                                                                   
   LULTRA =        F    use ultrasoft PP ?                                                          
   IUNSCR =        1    unscreen: 0-lin 1-nonlin 2-no                                               
   RPACOR =    0.800    partial core radius                                                         
   POMASS =   16.000; ZVAL   =    6.000    mass and valenz                                          
   RCORE  =    1.100    outmost cutoff radius                                                       
   RWIGS  =    1.400; RWIGS  =    0.741    wigner-seitz radius (au A)                               
   ENMAX  =  700.000; ENMIN  =  500.000 eV                                                          
   ICORE  =        2    local potential                                                             
   LCOR   =        T    correct aug charges                                                         
   LPAW   =        T    paw PP                                                                      
   EAUG   =  888.804                                                                                
   DEXC   =    0.000                                                                                
   RMAX   =    1.128    core radius for proj-oper                                                   
   RAUG   =    1.300    factor for augmentation sphere                                              
   RDEP   =    1.125    radius for radial grids                                                     
   RDEPT  =    1.088    core radius for aug-charge                                                  
                                                                                                    
   Atomic configuration                                                                             
    4 entries                                                                                       
     n  l   j            E        occ.                                                              
     1  0  0.50      -514.6923   2.0000                                                             
     2  0  0.50       -23.9615   2.0000                                                             
     2  1  0.50        -9.0305   4.0000                                                             
     3  2  1.50        -9.5241   0.0000                                                             
   Description                                                                                      
     l       E           TYP  RCUT    TYP  RCUT                                                     
     0    -23.9615319     23  1.100                                                                 
     0    -25.3221145     23  1.100                                                                 
     1     -9.0304911     23  1.100                                                                 
     1     -5.4802209     23  1.100                                                                 
     2     -9.5240782      7  1.100                                                                 
  local pseudopotential read in
  partial core-charges read in
  partial kinetic energy density read in
  atomic valenz-charges read in
  non local Contribution for L=           0  read in
    real space projection operators read in
  non local Contribution for L=           0  read in
    real space projection operators read in
  non local Contribution for L=           1  read in
    real space projection operators read in
  non local Contribution for L=           1  read in
    real space projection operators read in
    PAW grid and wavefunctions read in
 
   number of l-projection  operators is LMAX  =           4
   number of lm-projection operators is LMMAX =           8
 
 -----------------------------------------------------------------------------
|                                                                             |
|               ----> ADVICE to this user running VASP <----                  |
|                                                                             |
|     You have a (more or less) 'large supercell' and for larger cells it     |
|     might be more efficient to use real-space projection operators.         |
|     Therefore, try LREAL= Auto in the INCAR file.                           |
|     Mind: For very accurate calculation, you might also keep the            |
|     reciprocal projection scheme (i.e. LREAL=.FALSE.).                      |
|                                                                             |
 -----------------------------------------------------------------------------

 -----------------------------------------------------------------------------
|                                                                             |
|               ----> ADVICE to this user running VASP <----                  |
|                                                                             |
|     You enforced a specific xc type in the INCAR file but a different       |
|     type was found in the POTCAR file.                                      |
|     I HOPE YOU KNOW WHAT YOU ARE DOING!                                     |
|                                                                             |
 -----------------------------------------------------------------------------

  PAW_PBE C_h 06Feb2004                 :
 energy of atom  1       EATOM= -147.1560
 kinetic energy error for atom=    0.0031 (will be added to EATOM!!)
  PAW_PBE O_h 06Feb2004                 :
 energy of atom  2       EATOM= -432.3788
 kinetic energy error for atom=    0.0171 (will be added to EATOM!!)
 
 
 POSCAR:  C  O
  positions in cartesian coordinates
  No initial velocities read in
 exchange correlation table for  LEXCH =       43
   RHO(1)=    0.500       N(1)  =     2000
   RHO(2)=  100.500       N(2)  =     4000
 


--------------------------------------------------------------------------------------------------------


 ion  position               nearest neighbor table
   1  0.972  0.000  0.001-  50 1.42   2 1.42  42 1.42
   2  0.039  0.134  0.000-   5 1.42   7 1.42   1 1.42
   3  0.172  0.000  0.000-  42 1.42  44 1.42   4 1.42
   4  0.239  0.134  0.000-   7 1.42   3 1.42  23 1.42
   5  0.972  0.200  0.000-   6 1.42   2 1.42  34 1.42
   6  0.039  0.334  0.000-   5 1.42  21 1.42  11 1.42
   7  0.172  0.200  0.000-   8 1.42   2 1.42   4 1.42
   8  0.239  0.334  0.000-  13 1.42   7 1.42  21 1.42
   9  0.372  0.000  0.000-  10 1.42  44 1.42  46 1.42
  10  0.439  0.134  0.000-  27 1.42   9 1.42  23 1.42
  11  0.972  0.400  0.001-  12 1.42  36 1.42   6 1.42
  12  0.039  0.534  0.001-  25 1.42  11 1.42  17 1.42
  13  0.372  0.400  0.000-   8 1.42  14 1.42  24 1.42
  14  0.439  0.534  0.000-  13 1.42  29 1.42  19 1.42
  15  0.572  0.000  0.001-  46 1.42  16 1.42  48 1.42
  16  0.639  0.134  0.001-  15 1.42  35 1.42  27 1.42
  17  0.972  0.600  0.001-  38 1.42  18 1.42  12 1.42
  18  0.039  0.734  0.001-  43 1.42  41 1.42  17 1.42
  19  0.572  0.600  0.000-  14 1.42  20 1.42  32 1.42
  20  0.639  0.734  0.001-  49 1.42  19 1.42  47 1.42
  21  0.172  0.400  0.000-  22 1.42   8 1.42   6 1.42
  22  0.239  0.534  0.000-  21 1.42  29 1.42  25 1.42
  23  0.372  0.200  0.000-  10 1.42   4 1.42  24 1.42
  24  0.439  0.334  0.000-  13 1.42  31 1.42  23 1.42
  25  0.172  0.600  0.001-  26 1.42  12 1.42  22 1.42
  26  0.239  0.734  0.001-  25 1.42  45 1.42  43 1.42
  27  0.572  0.200  0.000-  10 1.42  28 1.42  16 1.42
  28  0.639  0.334  0.000-  27 1.42  37 1.42  31 1.42
  29  0.372  0.600  0.000-  22 1.42  14 1.42  30 1.42
  30  0.439  0.734  0.000-  47 1.42  29 1.42  45 1.42
  31  0.572  0.400  0.000-  32 1.42  28 1.42  24 1.42
  32  0.639  0.534  0.000-  31 1.42  39 1.42  19 1.42
  33  0.772  0.000  0.001-  34 1.42  48 1.42  50 1.42
  34  0.839  0.134  0.001-  33 1.42   5 1.42  35 1.42
  35  0.772  0.200  0.001-  36 1.42  16 1.42  34 1.42
  36  0.839  0.334  0.001-  35 1.42  11 1.42  37 1.42
  37  0.772  0.400  0.001-  28 1.42  38 1.42  36 1.42
  38  0.839  0.534  0.001-  17 1.42  37 1.42  39 1.42
  39  0.772  0.600  0.001-  40 1.42  38 1.42  32 1.42
  40  0.839  0.734  0.001-  39 1.42  49 1.42  41 1.42
  41  0.972  0.800  0.001-  18 1.42  42 1.42  40 1.42
  42  0.039  0.934  0.001-   3 1.42  41 1.42   1 1.42
  43  0.172  0.800  0.001-  18 1.42  44 1.42  26 1.42
  44  0.239  0.934  0.001-   9 1.42  43 1.42   3 1.42
  45  0.372  0.800  0.001-  26 1.42  46 1.42  30 1.42
  46  0.439  0.934  0.001-  15 1.42  45 1.42   9 1.42
  47  0.572  0.800  0.001-  30 1.42  48 1.42  20 1.42
  48  0.639  0.934  0.001-  47 1.42  33 1.42  15 1.42
  49  0.772  0.800  0.001-  50 1.42  20 1.42  40 1.42
  50  0.839  0.934  0.001-  49 1.42   1 1.42  33 1.42
  51  0.373  0.251  0.283-  52 1.18  53 1.18
  52  0.421  0.189  0.285-  51 1.18
  53  0.325  0.313  0.280-  51 1.18
 
  LATTYP: Found a hexagonal cell.
 ALAT       =    12.3250000000
 C/A-ratio  =     2.0283975659
  
  Lattice vectors:
  
 A1 = (  12.3250000000,   0.0000000000,   0.0000000000)
 A2 = (  -6.1625000000,  10.6737631016,   0.0000000000)
 A3 = (   0.0000000000,   0.0000000000,  25.0000000000)


Analysis of symmetry for initial positions (statically):
=====================================================================
 Subroutine PRICEL returns:
 Original cell was already a primitive cell.
 

 Routine SETGRP: Setting up the symmetry group for a 
 hexagonal supercell.


 Subroutine GETGRP returns: Found  1 space group operations
 (whereof  1 operations were pure point group operations)
 out of a pool of 24 trial point group operations.


The static configuration has the point symmetry C_1 .


Analysis of symmetry for dynamics (positions and initial velocities):
=====================================================================
 Subroutine PRICEL returns:
 Original cell was already a primitive cell.
 

 Routine SETGRP: Setting up the symmetry group for a 
 hexagonal supercell.


 Subroutine GETGRP returns: Found  1 space group operations
 (whereof  1 operations were pure point group operations)
 out of a pool of 24 trial point group operations.


The dynamic configuration has the point symmetry C_1 .


 Subroutine INISYM returns: Found  1 space group operations
 (whereof  1 operations are pure point group operations),
 and found     1 'primitive' translations


----------------------------------------------------------------------------------------

                                     Primitive cell                                     

  volume of cell :    3288.8533

  direct lattice vectors                    reciprocal lattice vectors
    12.325000000  0.000000000  0.000000000     0.081135903  0.046843835  0.000000000
    -6.162500000 10.673763102  0.000000000     0.000000000  0.093687670  0.000000000
     0.000000000  0.000000000 25.000000000     0.000000000  0.000000000  0.040000000

  length of vectors
    12.325000000 12.325000000 25.000000000     0.093687670  0.093687670  0.040000000

  position of ions in fractional coordinates (direct lattice)
     0.972450841  0.000320818  0.000566711
     0.039118382  0.133659505  0.000440173
     0.172443627  0.000295449  0.000499628
     0.239096278  0.133647917  0.000256468
     0.972452058  0.200322012  0.000485219
     0.039128360  0.333643771  0.000444150
     0.172451764  0.200354552  0.000219167
     0.239124359  0.333665720  0.000072260
     0.372465565  0.000324403  0.000453913
     0.439137473  0.133619939  0.000258338
     0.972449824  0.400309362  0.000547611
     0.039124981  0.533636789  0.000573410
     0.372416176  0.400329481  0.000000000
     0.439099602  0.533638981  0.000232414
     0.572443676  0.000312125  0.000559580
     0.639110207  0.133631751  0.000547275
     0.972452703  0.600305653  0.000640289
     0.039124495  0.733640359  0.000654513
     0.572433471  0.600306242  0.000402895
     0.639111888  0.733641879  0.000527905
     0.172454630  0.400318228  0.000289045
     0.239120185  0.533636548  0.000378509
     0.372459750  0.200295993  0.000088997
     0.439107096  0.333673419  0.000055762
     0.172452155  0.600311506  0.000524340
     0.239123371  0.733638574  0.000575129
     0.572431082  0.200289171  0.000413296
     0.639112773  0.333618630  0.000462376
     0.372439808  0.600308022  0.000362844
     0.439116090  0.733637858  0.000494190
     0.572469358  0.400320504  0.000339918
     0.639119408  0.533650873  0.000459610
     0.772445723  0.000315427  0.000596161
     0.839116277  0.133640203  0.000575306
     0.772440513  0.200307432  0.000581033
     0.839120241  0.333635728  0.000585467
     0.772446320  0.400298367  0.000582978
     0.839118980  0.533633964  0.000621100
     0.772456143  0.600308173  0.000595712
     0.839115033  0.733643180  0.000631512
     0.972455313  0.800305582  0.000652233
     0.039114714  0.933643289  0.000598051
     0.172457971  0.800312211  0.000623372
     0.239134551  0.933647193  0.000544850
     0.372451396  0.800316674  0.000551399
     0.439124489  0.933644769  0.000541430
     0.572441101  0.800310054  0.000534535
     0.639115067  0.933638985  0.000587644
     0.772445098  0.800313187  0.000602062
     0.839116614  0.933644338  0.000606830
     0.373021009  0.251226878  0.282842712
     0.420879805  0.189313152  0.285419587
     0.325156981  0.313167186  0.280464518

  ion indices of the primitive-cell ions
   primitive index   ion index
                 1           1
                 2           2
                 3           3
                 4           4
                 5           5
                 6           6
                 7           7
                 8           8
                 9           9
                10          10
                11          11
                12          12
                13          13
                14          14
                15          15
                16          16
                17          17
                18          18
                19          19
                20          20
                21          21
                22          22
                23          23
                24          24
                25          25
                26          26
                27          27
                28          28
                29          29
                30          30
                31          31
                32          32
                33          33
                34          34
                35          35
                36          36
                37          37
                38          38
                39          39
                40          40
                41          41
                42          42
                43          43
                44          44
                45          45
                46          46
                47          47
                48          48
                49          49
                50          50
                51          51
                52          52
                53          53

----------------------------------------------------------------------------------------

 
 
 KPOINTS: auto                                    

Automatic generation of k-mesh.
 Grid dimensions read from file:
 generate k-points for:    1    1    1

 Generating k-lattice:

  Cartesian coordinates                     Fractional coordinates (reciprocal lattice)
     0.081135903  0.046843835  0.000000000     1.000000000 -0.000000000  0.000000000
     0.000000000  0.093687670  0.000000000     0.000000000  1.000000000  0.000000000
     0.000000000  0.000000000  0.040000000     0.000000000  0.000000000  1.000000000

  Length of vectors
     0.093687670  0.093687670  0.040000000

  Shift w.r.t. Gamma in fractional coordinates (k-lattice)
     0.000000000  0.000000000  0.000000000

 
 Subroutine IBZKPT returns following result:
 ===========================================
 
 Found      1 irreducible k-points:
 
 Following reciprocal coordinates:
            Coordinates               Weight
  0.000000  0.000000  0.000000      1.000000
 
 Following cartesian coordinates:
            Coordinates               Weight
  0.000000  0.000000  0.000000      1.000000
 


--------------------------------------------------------------------------------------------------------




 Dimension of arrays:
   k-points           NKPTS =      1   k-points in BZ     NKDIM =      1   number of bands    NBANDS=    136
   number of dos      NEDOS =    301   number of ions     NIONS =     53
   non local maximal  LDIM  =      4   non local SUM 2l+1 LMDIM =      8
   total plane-waves  NPLWV = ******
   max r-space proj   IRMAX =      1   max aug-charges    IRDMAX=  10008
   dimension x,y,z NGX =   128 NGY =  128 NGZ =  270
   dimension x,y,z NGXF=   256 NGYF=  256 NGZF=  540
   support grid    NGXF=   256 NGYF=  256 NGZF=  540
   ions per type =              51   2
   NGX,Y,Z   is equivalent  to a cutoff of  17.27, 17.27, 17.95 a.u.
   NGXF,Y,Z  is equivalent  to a cutoff of  34.53, 34.53, 35.91 a.u.

 SYSTEM =  unknown system                          
 POSCAR =   C  O                                   

 Startparameter for this run:
   NWRITE =      2    write-flag & timer
   PREC   = accura    normal or accurate (medium, high low for compatibility)
   ISTART =      0    job   : 0-new  1-cont  2-samecut
   ICHARG =      2    charge: 1-file 2-atom 10-const
   ISPIN  =      1    spin polarized calculation?
   LNONCOLLINEAR =      F non collinear calculations
   LSORBIT =      F    spin-orbit coupling
   INIWAV =      1    electr: 0-lowe 1-rand  2-diag
   LASPH  =      T    aspherical Exc in radial PAW
 Electronic Relaxation 1
   ENCUT  = 1000.0 eV  73.50 Ry    8.57 a.u.  31.78 31.78 64.46*2*pi/ulx,y,z
   ENINI  = 1000.0     initial cutoff
   ENAUG  =  946.8 eV  augmentation charge cutoff
   NELM   =     60;   NELMIN=  2; NELMDL= -5     # of ELM steps 
   EDIFF  = 0.1E-06   stopping-criterion for ELM
   LREAL  =      F    real-space projection
   NLSPLINE    = F    spline interpolate recip. space projectors
   LCOMPAT=      F    compatible to vasp.4.4
   GGA_COMPAT  = T    GGA compatible to vasp.4.4-vasp.4.6
   LMAXPAW     = -100 max onsite density
   LMAXMIX     =    2 max onsite mixed and CHGCAR
   VOSKOWN=      0    Vosko Wilk Nusair interpolation
   ROPT   =    0.00000   0.00000
 Ionic relaxation
   EDIFFG = 0.1E-05   stopping-criterion for IOM
   NSW    =      0    number of steps for IOM
   NBLOCK =      1;   KBLOCK =      1    inner block; outer block 
   IBRION =     -1    ionic relax: 0-MD 1-quasi-New 2-CG
   NFREE  =      0    steps in history (QN), initial steepest desc. (CG)
   ISIF   =      0    stress and relaxation
   IWAVPR =     10    prediction:  0-non 1-charg 2-wave 3-comb
   ISYM   =      2    0-nonsym 1-usesym 2-fastsym
   LCORR  =      T    Harris-Foulkes like correction to forces

   POTIM  = 0.5000    time-step for ionic-motion
   TEIN   =    0.0    initial temperature
   TEBEG  =    0.0;   TEEND  =   0.0 temperature during run
   SMASS  =  -3.00    Nose mass-parameter (am)
   estimated Nose-frequenzy (Omega)   =  0.10E-29 period in steps = 0.13E+47 mass=  -0.347E-26a.u.
   SCALEE = 1.0000    scale energy and forces
   NPACO  =    256;   APACO  = 16.0  distance and # of slots for P.C.
   PSTRESS=    0.0 pullay stress

  Mass of Ions in am
   POMASS =  12.01 16.00
  Ionic Valenz
   ZVAL   =   4.00  6.00
  Atomic Wigner-Seitz radii
   RWIGS  =  -1.00 -1.00
  virtual crystal weights 
   VCA    =   1.00  1.00
   NELECT =     216.0000    total number of electrons
   NUPDOWN=      -1.0000    fix difference up-down

 DOS related values:
   EMIN   =  10.00;   EMAX   =-10.00  energy-range for DOS
   EFERMI =   0.00
   ISMEAR =     0;   SIGMA  =   0.01  broadening in eV -4-tet -1-fermi 0-gaus

 Electronic relaxation 2 (details)
   IALGO  =     58    algorithm
   LDIAG  =      T    sub-space diagonalisation (order eigenvalues)
   LSUBROT=      F    optimize rotation matrix (better conditioning)
   TURBO    =      0    0=normal 1=particle mesh
   IRESTART =      0    0=no restart 2=restart with 2 vectors
   NREBOOT  =      0    no. of reboots
   NMIN     =      0    reboot dimension
   EREF     =   0.00    reference energy to select bands
   IMIX   =      4    mixing-type and parameters
     AMIX     =   0.40;   BMIX     =  1.00
     AMIX_MAG =   1.60;   BMIX_MAG =  1.00
     AMIN     =   0.10
     WC   =   100.;   INIMIX=   1;  MIXPRE=   1;  MAXMIX= -45

 Intra band minimization:
   WEIMIN = 0.0000     energy-eigenvalue tresh-hold
   EBREAK =  0.18E-09  absolut break condition
   DEPER  =   0.30     relativ break condition  

   TIME   =   0.40     timestep for ELM

  volume/ion in A,a.u.               =      62.05       418.76
  Fermi-wavevector in a.u.,A,eV,Ry     =   0.660508  1.248179  5.935820  0.436270
  Thomas-Fermi vector in A             =   1.732977
 
 Write flags
   LWAVE        =      T    write WAVECAR
   LDOWNSAMPLE  =      F    k-point downsampling of WAVECAR
   LCHARG       =      T    write CHGCAR
   LVTOT        =      F    write LOCPOT, total local potential
   LVHAR        =      F    write LOCPOT, Hartree potential only
   LELF         =      F    write electronic localiz. function (ELF)
   LORBIT       =      0    0 simple, 1 ext, 2 COOP (PROOUT), +10 PAW based schemes


 Dipole corrections
   LMONO  =      F    monopole corrections only (constant potential shift)
   LDIPOL =      F    correct potential (dipole corrections)
   IDIPOL =      0    1-x, 2-y, 3-z, 4-all directions 
   EPSILON=  1.0000000 bulk dielectric constant

 Exchange correlation treatment:
   GGA     =    MK    GGA type
   LEXCH   =    43    internal setting for exchange type
   VOSKOWN=      0    Vosko Wilk Nusair interpolation
   LHFCALC =     F    Hartree Fock is set to
   LHFONE  =     F    Hartree Fock one center treatment
   AEXX    =    0.0000 exact exchange contribution

 vdW DFT:
   LUSE_VDW   =     T    switch on vdW DFT
   Zab_VDW    =-.8491    correlation parameter
   PARAM1     =0.1234
   PARAM2     =1.0000
   PARAM3     =0.0000
   -- rVV10 --
   BPARAM     = 6.3000
   CPARAM     = 0.0093

 Linear response parameters
   LEPSILON=     F    determine dielectric tensor
   LRPA    =     F    only Hartree local field effects (RPA)
   LNABLA  =     F    use nabla operator in PAW spheres
   LVEL    =     F    velocity operator in full k-point grid
   LINTERFAST=   F  fast interpolation
   KINTER  =     0    interpolate to denser k-point grid
   CSHIFT  =0.1000    complex shift for real part using Kramers Kronig
   OMEGAMAX=  -1.0    maximum frequency
   DEG_THRESHOLD= 0.2000000E-02 threshold for treating states as degnerate
   RTIME   =   -0.100 relaxation time in fs
  (WPLASMAI=    0.000 imaginary part of plasma frequency in eV, 0.658/RTIME)
   DFIELD  = 0.0000000 0.0000000 0.0000000 field for delta impulse in time
 
 Orbital magnetization related:
   ORBITALMAG=     F  switch on orbital magnetization
   LCHIMAG   =     F  perturbation theory with respect to B field
   DQ        =  0.001000  dq finite difference perturbation B field
   LLRAUG    =     F  two centre corrections for induced B field



--------------------------------------------------------------------------------------------------------


 Static calculation
 charge density and potential will be updated during run
 non-spin polarized calculation
 Conjugate gradient for all bands (Freysoldt, et al. PRB 79, 241103 (2009))
 preconditioned conjugated gradient                                        
 perform sub-space diagonalisation
    before iterative eigenvector-optimisation
 modified Broyden-mixing scheme, WC =      100.0
 initial mixing is a Kerker type mixing with AMIX =  0.4000 and BMIX =      1.0000
 Hartree-type preconditioning will be used
 using additional bands           28
 reciprocal scheme for non local part
 use partial core corrections
 no Harris-corrections to forces 
 use gradient corrections 
 use of overlap-Matrix (Vanderbilt PP)
 Gauss-broadening in eV      SIGMA  =   0.01


--------------------------------------------------------------------------------------------------------


  energy-cutoff  :     1000.00
  volume of cell :     3288.85
      direct lattice vectors                 reciprocal lattice vectors
    12.325000000  0.000000000  0.000000000     0.081135903  0.046843835  0.000000000
    -6.162500000 10.673763102  0.000000000     0.000000000  0.093687670  0.000000000
     0.000000000  0.000000000 25.000000000     0.000000000  0.000000000  0.040000000

  length of vectors
    12.325000000 12.325000000 25.000000000     0.093687670  0.093687670  0.040000000


 
 k-points in units of 2pi/SCALE and weight: auto                                    
   0.00000000  0.00000000  0.00000000       1.000
 
 k-points in reciprocal lattice and weights: auto                                    
   0.00000000  0.00000000  0.00000000       1.000
 
 position of ions in fractional coordinates (direct lattice) 
   0.97245084  0.00032082  0.00056671
   0.03911838  0.13365950  0.00044017
   0.17244363  0.00029545  0.00049963
   0.23909628  0.13364792  0.00025647
   0.97245206  0.20032201  0.00048522
   0.03912836  0.33364377  0.00044415
   0.17245176  0.20035455  0.00021917
   0.23912436  0.33366572  0.00007226
   0.37246557  0.00032440  0.00045391
   0.43913747  0.13361994  0.00025834
   0.97244982  0.40030936  0.00054761
   0.03912498  0.53363679  0.00057341
   0.37241618  0.40032948  0.00000000
   0.43909960  0.53363898  0.00023241
   0.57244368  0.00031213  0.00055958
   0.63911021  0.13363175  0.00054727
   0.97245270  0.60030565  0.00064029
   0.03912449  0.73364036  0.00065451
   0.57243347  0.60030624  0.00040289
   0.63911189  0.73364188  0.00052791
   0.17245463  0.40031823  0.00028904
   0.23912018  0.53363655  0.00037851
   0.37245975  0.20029599  0.00008900
   0.43910710  0.33367342  0.00005576
   0.17245216  0.60031151  0.00052434
   0.23912337  0.73363857  0.00057513
   0.57243108  0.20028917  0.00041330
   0.63911277  0.33361863  0.00046238
   0.37243981  0.60030802  0.00036284
   0.43911609  0.73363786  0.00049419
   0.57246936  0.40032050  0.00033992
   0.63911941  0.53365087  0.00045961
   0.77244572  0.00031543  0.00059616
   0.83911628  0.13364020  0.00057531
   0.77244051  0.20030743  0.00058103
   0.83912024  0.33363573  0.00058547
   0.77244632  0.40029837  0.00058298
   0.83911898  0.53363396  0.00062110
   0.77245614  0.60030817  0.00059571
   0.83911503  0.73364318  0.00063151
   0.97245531  0.80030558  0.00065223
   0.03911471  0.93364329  0.00059805
   0.17245797  0.80031221  0.00062337
   0.23913455  0.93364719  0.00054485
   0.37245140  0.80031667  0.00055140
   0.43912449  0.93364477  0.00054143
   0.57244110  0.80031005  0.00053453
   0.63911507  0.93363899  0.00058764
   0.77244510  0.80031319  0.00060206
   0.83911661  0.93364434  0.00060683
   0.37302101  0.25122688  0.28284271
   0.42087980  0.18931315  0.28541959
   0.32515698  0.31316719  0.28046452
 
 position of ions in cartesian coordinates  (Angst):
  11.98347958  0.00342433  0.01416777
  -0.34154264  1.42664989  0.01100432
   2.12354700  0.00315355  0.01249070
   2.12325634  1.42652621  0.00641170
  10.75098721  2.13818970  0.01213047
  -1.57382270  3.56123457  0.01110375
   0.89078307  2.13853702  0.00547917
   0.89099273  3.56146885  0.00180651
   4.58863896  0.00346260  0.01134782
   4.58893648  1.42622757  0.00645846
   9.51853763  4.27280730  0.01369027
  -2.80632132  5.69591267  0.01433526
   2.12299894  4.27302204  0.00000000
   2.12335237  5.69593607  0.00581036
   7.05344483  0.00333155  0.01398950
   7.05352764  1.42635365  0.01368187
   8.28609598  6.40752033  0.01600723
  -4.03884931  7.83070339  0.01636283
   3.35585531  6.40752662  0.01007237
   3.35598594  7.83071962  0.01319763
  -0.34145776  4.27290193  0.00722612
  -0.34137895  5.69591010  0.00946273
   3.35624236  2.13791198  0.00222492
   3.35573251  3.56155103  0.00139405
  -1.57394684  6.40758280  0.01310850
  -1.57385216  7.83068434  0.01437823
   5.82093107  2.13783916  0.01033241
   5.82114012  3.56096622  0.01155939
   0.89092245  6.40754561  0.00907111
   0.89106251  7.83067670  0.01235474
   4.58870974  4.27292622  0.00849795
   4.58852320  5.69606300  0.01149026
   9.51844972  0.00336679  0.01490402
   9.51855036  1.42644387  0.01438264
   8.28593477  2.13803408  0.01452582
   8.28612680  3.56114872  0.01463668
   7.05356221  4.27268994  0.01457444
   7.05362213  5.69588251  0.01552751
   5.82112285  6.40754723  0.01489279
   5.82101669  7.83073350  0.01578780
   7.05362858  8.54227219  0.01630582
  -5.27148792  9.96548729  0.01495127
  -2.80637951  8.54234295  0.01558431
  -2.80626749  9.96552896  0.01362126
  -0.34148805  8.54239058  0.01378498
  -0.34137657  9.96550309  0.01353576
   2.12342586  8.54231992  0.01336337
   2.12354296  9.96544135  0.01469111
   4.58845581  8.54235337  0.01505154
   4.58852904  9.96549848  0.01517076
   3.04929830  2.68153618  7.07106781
   4.02070129  2.02068374  7.13548967
   2.07766701  3.34267235  7.01161294
 


--------------------------------------------------------------------------------------------------------


 k-point   1 :   0.0000 0.0000 0.0000  plane waves:  236157

 maximum and minimum number of plane-waves per node :      8440     8428

 maximum number of plane-waves:    236157
 maximum index in each direction: 
   IXMAX=   31   IYMAX=   31   IZMAX=   64
   IXMIN=  -31   IYMIN=  -31   IZMIN=  -64


 parallel 3D FFT for wavefunctions:
    minimum data exchange during FFTs selected (reduces bandwidth)
 parallel 3D FFT for charge:
    minimum data exchange during FFTs selected (reduces bandwidth)


 total amount of memory used by VASP MPI-rank0   100580. kBytes
=======================================================================

   base      :      30000. kBytes
   nonl-proj :       8229. kBytes
   fftplans  :      18352. kBytes
   grid      :      30208. kBytes
   one-center:          6. kBytes
   wavefun   :      13785. kBytes
 
     INWAV:  cpu time    0.0000: real time    0.0000
 Broyden mixing: mesh for mixing (old mesh)
   NGX = 63   NGY = 63   NGZ =129
  (NGX  =256   NGY  =256   NGZ  =540)
  gives a total of 512001 points

 initial charge density was supplied:
 charge density of overlapping atoms calculated
 number of electron     216.0000000 magnetization 
 keeping initial charge density in first step


--------------------------------------------------------------------------------------------------------


 Maximum index for augmentation-charges          471 (set IRDMAX)


--------------------------------------------------------------------------------------------------------


 First call to EWALD:  gamma=   0.119
 Maximum number of real-space cells 4x 4x 2
 Maximum number of reciprocal cells 2x 2x 4

    FEWALD:  cpu time    0.0025: real time    0.0025


--------------------------------------- Iteration      1(   1)  ---------------------------------------


vdW kernel read from vdw_kernel.bindat
  0.0000  0.2424  0.5071  0.7962  1.1119  1.4567  1.8333  2.2446  2.6937  3.1842
  3.7199  4.3049  4.9438  5.6415  6.4036  7.2358  8.1446  9.1372 10.2212 11.4050
 12.6979 14.1099 15.6519 17.3360 19.1751 21.1837 23.3773 25.7729 28.3892 31.2465
 34.3669 37.7748 41.4965 45.5611 50.0000
 
    POTLOK:  cpu time    4.5439: real time    4.5993
    SETDIJ:  cpu time    0.0556: real time    0.0558
    TRIAL :  cpu time    2.0713: real time    2.0912
    CORREC:  cpu time    0.0005: real time    0.0005
    --------------------------------------------
      LOOP:  cpu time    6.6771: real time    6.7595

 eigenvalue-minimisations  :   288
 total energy-change (2. order) : 0.2744595E+04  (-0.1019621E+05)
 number of electron     216.0000000 magnetization 
 augmentation part      216.0000000 magnetization 

 Free energy of the ion-electron system (eV)
  ---------------------------------------------------
  alpha Z        PSCENC =        47.94900195
  Ewald energy   TEWEN  =     42432.44515335
  -Hartree energ DENC   =    -48501.64799612
  -exchange      EXHF   =         0.00000000
  -V(xc)+E(xc)   XCENC  =       414.11244569
  PAW double counting   =      6552.85433684    -6257.21772958
  entropy T*S    EENTRO =        -0.00000523
  eigenvalues    EBANDS =      -358.93560202
  atomic energy  EATOM  =      8415.03548706
  ---------------------------------------------------
  free energy    TOTEN  =      2744.59509194 eV

  energy without entropy =     2744.59509717  energy(sigma->0) =     2744.59509456


--------------------------------------------------------------------------------------------------------




--------------------------------------- Iteration      1(   2)  ---------------------------------------


    TRIAL :  cpu time    2.8617: real time    2.8871
    CORREC:  cpu time    0.0000: real time    0.0000
    --------------------------------------------
      LOOP:  cpu time    2.9310: real time    2.9572

 eigenvalue-minimisations  :   448
 total energy-change (2. order) :-0.2308091E+04  (-0.2157927E+04)
 number of electron     216.0000000 magnetization 
 augmentation part      216.0000000 magnetization 

 Free energy of the ion-electron system (eV)
  ---------------------------------------------------
  alpha Z        PSCENC =        47.94900195
  Ewald energy   TEWEN  =     42432.44515335
  -Hartree energ DENC   =    -48501.64799612
  -exchange      EXHF   =         0.00000000
  -V(xc)+E(xc)   XCENC  =       414.11244569
  PAW double counting   =      6552.85433684    -6257.21772958
  entropy T*S    EENTRO =        -0.00000000
  eigenvalues    EBANDS =     -2667.02650877
  atomic energy  EATOM  =      8415.03548706
  ---------------------------------------------------
  free energy    TOTEN  =       436.50419043 eV

  energy without entropy =      436.50419043  energy(sigma->0) =      436.50419043


--------------------------------------------------------------------------------------------------------




--------------------------------------- Iteration      1(   3)  ---------------------------------------


    TRIAL :  cpu time    2.3276: real time    2.3506
    CORREC:  cpu time    0.0001: real time    0.0001
    --------------------------------------------
      LOOP:  cpu time    2.3940: real time    2.4195

 eigenvalue-minimisations  :   344
 total energy-change (2. order) :-0.8078130E+03  (-0.7947328E+03)
 number of electron     216.0000000 magnetization 
 augmentation part      216.0000000 magnetization 

 Free energy of the ion-electron system (eV)
  ---------------------------------------------------
  alpha Z        PSCENC =        47.94900195
  Ewald energy   TEWEN  =     42432.44515335
  -Hartree energ DENC   =    -48501.64799612
  -exchange      EXHF   =         0.00000000
  -V(xc)+E(xc)   XCENC  =       414.11244569
  PAW double counting   =      6552.85433684    -6257.21772958
  entropy T*S    EENTRO =        -0.00000000
  eigenvalues    EBANDS =     -3474.83949071
  atomic energy  EATOM  =      8415.03548706
  ---------------------------------------------------
  free energy    TOTEN  =      -371.30879152 eV

  energy without entropy =     -371.30879152  energy(sigma->0) =     -371.30879152


--------------------------------------------------------------------------------------------------------




--------------------------------------- Iteration      1(   4)  ---------------------------------------


    TRIAL :  cpu time    2.2864: real time    2.3105
    CORREC:  cpu time    0.0001: real time    0.0001
    --------------------------------------------
      LOOP:  cpu time    2.3500: real time    2.3900

 eigenvalue-minimisations  :   336
 total energy-change (2. order) :-0.7628242E+02  (-0.7523195E+02)
 number of electron     216.0000000 magnetization 
 augmentation part      216.0000000 magnetization 

 Free energy of the ion-electron system (eV)
  ---------------------------------------------------
  alpha Z        PSCENC =        47.94900195
  Ewald energy   TEWEN  =     42432.44515335
  -Hartree energ DENC   =    -48501.64799612
  -exchange      EXHF   =         0.00000000
  -V(xc)+E(xc)   XCENC  =       414.11244569
  PAW double counting   =      6552.85433684    -6257.21772958
  entropy T*S    EENTRO =        -0.00000000
  eigenvalues    EBANDS =     -3551.12190609
  atomic energy  EATOM  =      8415.03548706
  ---------------------------------------------------
  free energy    TOTEN  =      -447.59120689 eV

  energy without entropy =     -447.59120689  energy(sigma->0) =     -447.59120689


--------------------------------------------------------------------------------------------------------




--------------------------------------- Iteration      1(   5)  ---------------------------------------


    TRIAL :  cpu time    2.2894: real time    2.3085
    CORREC:  cpu time    0.0001: real time    0.0001
    CHARGE:  cpu time    0.1795: real time    0.1814
    --------------------------------------------
      LOOP:  cpu time    2.5268: real time    2.5491

 eigenvalue-minimisations  :   336
 total energy-change (2. order) :-0.2345635E+01  (-0.2331922E+01)
 number of electron     216.0000000 magnetization 
 augmentation part       -0.2578545 magnetization 

 Free energy of the ion-electron system (eV)
  ---------------------------------------------------
  alpha Z        PSCENC =        47.94900195
  Ewald energy   TEWEN  =     42432.44515335
  -Hartree energ DENC   =    -48501.64799612
  -exchange      EXHF   =         0.00000000
  -V(xc)+E(xc)   XCENC  =       414.11244569
  PAW double counting   =      6552.85433684    -6257.21772958
  entropy T*S    EENTRO =        -0.00000000
  eigenvalues    EBANDS =     -3553.46754129
  atomic energy  EATOM  =      8415.03548706
  ---------------------------------------------------
  free energy    TOTEN  =      -449.93684210 eV

  energy without entropy =     -449.93684210  energy(sigma->0) =     -449.93684210


--------------------------------------------------------------------------------------------------------




--------------------------------------- Iteration      1(   6)  ---------------------------------------


    POTLOK:  cpu time    4.2178: real time    4.2494
    SETDIJ:  cpu time    0.0542: real time    0.0544
    TRIAL :  cpu time    1.1603: real time    1.1706
    CORREC:  cpu time    4.6964: real time    4.7343
    CHARGE:  cpu time    0.1772: real time    0.1789
    --------------------------------------------
      LOOP:  cpu time   10.3773: real time   10.4613

 eigenvalue-minimisations  :     0
 total energy-change (2. order) : 0.5093715E+02  (-0.1569916E+02)
 number of electron     216.0000000 magnetization 
 augmentation part       -0.3483832 magnetization 

 Free energy of the ion-electron system (eV)
  ---------------------------------------------------
  alpha Z        PSCENC =        47.94900195
  Ewald energy   TEWEN  =     42432.44515335
  -Hartree energ DENC   =    -49934.05551563
  -exchange      EXHF   =         0.00000000
  -V(xc)+E(xc)   XCENC  =       461.64344047
  PAW double counting   =     86343.82258658   -86053.16703090
  entropy T*S    EENTRO =        -0.00000000
  eigenvalues    EBANDS =     -2112.67281771
  atomic energy  EATOM  =      8415.03548706
  ---------------------------------------------------
  free energy    TOTEN  =      -398.99969481 eV

  energy without entropy =     -398.99969481  energy(sigma->0) =     -398.99969481


--------------------------------------------------------------------------------------------------------




--------------------------------------- Iteration      1(   7)  ---------------------------------------


    POTLOK:  cpu time    4.2226: real time    4.2565
    SETDIJ:  cpu time    0.0543: real time    0.0545
    TRIAL :  cpu time    1.1593: real time    1.1694
    CORREC:  cpu time    4.7006: real time    4.7378
    CHARGE:  cpu time    0.1774: real time    0.1791
    --------------------------------------------
      LOOP:  cpu time   10.3834: real time   10.4715

 eigenvalue-minimisations  :     0
 total energy-change (2. order) :-0.1574765E+02  (-0.1828368E+01)
 number of electron     216.0000000 magnetization 
 augmentation part       -0.3917952 magnetization 

 Free energy of the ion-electron system (eV)
  ---------------------------------------------------
  alpha Z        PSCENC =        47.94900195
  Ewald energy   TEWEN  =     42432.44515335
  -Hartree energ DENC   =    -49421.29814460
  -exchange      EXHF   =         0.00000000
  -V(xc)+E(xc)   XCENC  =       444.65322565
  PAW double counting   =    101306.83710294  -101013.78872175
  entropy T*S    EENTRO =        -0.00000000
  eigenvalues    EBANDS =     -2626.58044959
  atomic energy  EATOM  =      8415.03548706
  ---------------------------------------------------
  free energy    TOTEN  =      -414.74734499 eV

  energy without entropy =     -414.74734499  energy(sigma->0) =     -414.74734499


--------------------------------------------------------------------------------------------------------




--------------------------------------- Iteration      1(   8)  ---------------------------------------


    POTLOK:  cpu time    4.2259: real time    4.2570
    SETDIJ:  cpu time    0.0542: real time    0.0544
    TRIAL :  cpu time    1.1513: real time    1.1648
    CORREC:  cpu time    4.6816: real time    4.7255
    CHARGE:  cpu time    0.1763: real time    0.1782
    --------------------------------------------
      LOOP:  cpu time   10.3151: real time   10.4288

 eigenvalue-minimisations  :     0
 total energy-change (2. order) :-0.1826857E+01  (-0.4996920E+00)
 number of electron     216.0000000 magnetization 
 augmentation part       -0.4084296 magnetization 

 Free energy of the ion-electron system (eV)
  ---------------------------------------------------
  alpha Z        PSCENC =        47.94900195
  Ewald energy   TEWEN  =     42432.44515335
  -Hartree energ DENC   =    -49393.36213583
  -exchange      EXHF   =         0.00000000
  -V(xc)+E(xc)   XCENC  =       444.14393015
  PAW double counting   =    105167.01727827  -104873.69504271
  entropy T*S    EENTRO =        -0.00000000
  eigenvalues    EBANDS =     -2656.10787390
  atomic energy  EATOM  =      8415.03548706
  ---------------------------------------------------
  free energy    TOTEN  =      -416.57420165 eV

  energy without entropy =     -416.57420165  energy(sigma->0) =     -416.57420165


--------------------------------------------------------------------------------------------------------




--------------------------------------- Iteration      1(   9)  ---------------------------------------


    POTLOK:  cpu time    4.2331: real time    4.2635
    SETDIJ:  cpu time    0.0541: real time    0.0543
    TRIAL :  cpu time    1.1527: real time    1.1633
    CORREC:  cpu time    4.7291: real time    4.7654
    CHARGE:  cpu time    0.1769: real time    0.1788
    --------------------------------------------
      LOOP:  cpu time   10.3869: real time   10.4681

 eigenvalue-minimisations  :     0
 total energy-change (2. order) :-0.4996053E+00  (-0.1869919E+00)
 number of electron     216.0000000 magnetization 
 augmentation part       -0.4163079 magnetization 

 Free energy of the ion-electron system (eV)
  ---------------------------------------------------
  alpha Z        PSCENC =        47.94900195
  Ewald energy   TEWEN  =     42432.44515335
  -Hartree energ DENC   =    -49409.73351881
  -exchange      EXHF   =         0.00000000
  -V(xc)+E(xc)   XCENC  =       444.32385189
  PAW double counting   =    107701.91991218  -107408.47878893
  entropy T*S    EENTRO =        -0.00000000
  eigenvalues    EBANDS =     -2640.53490564
  atomic energy  EATOM  =      8415.03548706
  ---------------------------------------------------
  free energy    TOTEN  =      -417.07380694 eV

  energy without entropy =     -417.07380694  energy(sigma->0) =     -417.07380694


--------------------------------------------------------------------------------------------------------




--------------------------------------- Iteration      1(  10)  ---------------------------------------


    POTLOK:  cpu time    4.2508: real time    4.2820
    SETDIJ:  cpu time    0.0540: real time    0.0543
    TRIAL :  cpu time    1.1523: real time    1.1637
    CORREC:  cpu time    4.6951: real time    4.7309
    CHARGE:  cpu time    0.1768: real time    0.1786
    --------------------------------------------
      LOOP:  cpu time   10.3672: real time   10.4526

 eigenvalue-minimisations  :     0
 total energy-change (2. order) :-0.1864890E+00  (-0.8841526E-01)
 number of electron     216.0000000 magnetization 
 augmentation part       -0.4158609 magnetization 

 Free energy of the ion-electron system (eV)
  ---------------------------------------------------
  alpha Z        PSCENC =        47.94900195
  Ewald energy   TEWEN  =     42432.44515335
  -Hartree energ DENC   =    -49407.92803691
  -exchange      EXHF   =         0.00000000
  -V(xc)+E(xc)   XCENC  =       444.17346353
  PAW double counting   =    108137.17626121  -107843.65383126
  entropy T*S    EENTRO =        -0.00000000
  eigenvalues    EBANDS =     -2642.45779483
  atomic energy  EATOM  =      8415.03548706
  ---------------------------------------------------
  free energy    TOTEN  =      -417.26029590 eV

  energy without entropy =     -417.26029590  energy(sigma->0) =     -417.26029590


--------------------------------------------------------------------------------------------------------




--------------------------------------- Iteration      1(  11)  ---------------------------------------


    POTLOK:  cpu time    4.2136: real time    4.2524
    SETDIJ:  cpu time    0.0541: real time    0.0543
    TRIAL :  cpu time    1.1535: real time    1.1642
    CORREC:  cpu time    4.6913: real time    4.7265
    CHARGE:  cpu time    0.1770: real time    0.1792
    --------------------------------------------
      LOOP:  cpu time   10.3498: real time   10.4388

 eigenvalue-minimisations  :     0
 total energy-change (2. order) :-0.8794437E-01  (-0.3642697E-01)
 number of electron     216.0000000 magnetization 
 augmentation part       -0.4150325 magnetization 

 Free energy of the ion-electron system (eV)
  ---------------------------------------------------
  alpha Z        PSCENC =        47.94900195
  Ewald energy   TEWEN  =     42432.44515335
  -Hartree energ DENC   =    -49401.10421762
  -exchange      EXHF   =         0.00000000
  -V(xc)+E(xc)   XCENC  =       444.08347406
  PAW double counting   =    107630.56694475  -107337.05060189
  entropy T*S    EENTRO =        -0.00000000
  eigenvalues    EBANDS =     -2649.27348193
  atomic energy  EATOM  =      8415.03548706
  ---------------------------------------------------
  free energy    TOTEN  =      -417.34824026 eV

  energy without entropy =     -417.34824026  energy(sigma->0) =     -417.34824026


--------------------------------------------------------------------------------------------------------




--------------------------------------- Iteration      1(  12)  ---------------------------------------


    POTLOK:  cpu time    4.2194: real time    4.2560
    SETDIJ:  cpu time    0.0542: real time    0.0544
    TRIAL :  cpu time    1.1499: real time    1.1629
    CORREC:  cpu time    4.7188: real time    4.7569
    CHARGE:  cpu time    0.1755: real time    0.1819
    --------------------------------------------
      LOOP:  cpu time   10.3615: real time   10.4577

 eigenvalue-minimisations  :     0
 total energy-change (2. order) :-0.3631199E-01  (-0.1147738E-01)
 number of electron     216.0000000 magnetization 
 augmentation part       -0.4147054 magnetization 

 Free energy of the ion-electron system (eV)
  ---------------------------------------------------
  alpha Z        PSCENC =        47.94900195
  Ewald energy   TEWEN  =     42432.44515335
  -Hartree energ DENC   =    -49397.56614595
  -exchange      EXHF   =         0.00000000
  -V(xc)+E(xc)   XCENC  =       443.99551411
  PAW double counting   =    107267.34979563  -106973.85012759
  entropy T*S    EENTRO =        -0.00000000
  eigenvalues    EBANDS =     -2652.74323082
  atomic energy  EATOM  =      8415.03548706
  ---------------------------------------------------
  free energy    TOTEN  =      -417.38455225 eV

  energy without entropy =     -417.38455225  energy(sigma->0) =     -417.38455225


--------------------------------------------------------------------------------------------------------




--------------------------------------- Iteration      1(  13)  ---------------------------------------


    POTLOK:  cpu time    4.2269: real time    4.2611
    SETDIJ:  cpu time    0.0541: real time    0.0542
    TRIAL :  cpu time    1.1499: real time    1.1619
    CORREC:  cpu time    4.6809: real time    4.7188
    CHARGE:  cpu time    0.1769: real time    0.1787
    --------------------------------------------
      LOOP:  cpu time   10.3310: real time   10.4225

 eigenvalue-minimisations  :     0
 total energy-change (2. order) :-0.1147078E-01  (-0.3354728E-02)
 number of electron     216.0000000 magnetization 
 augmentation part       -0.4139999 magnetization 

 Free energy of the ion-electron system (eV)
  ---------------------------------------------------
  alpha Z        PSCENC =        47.94900195
  Ewald energy   TEWEN  =     42432.44515335
  -Hartree energ DENC   =    -49397.70275011
  -exchange      EXHF   =         0.00000000
  -V(xc)+E(xc)   XCENC  =       443.99719096
  PAW double counting   =    107129.54333904  -106836.05463141
  entropy T*S    EENTRO =        -0.00000000
  eigenvalues    EBANDS =     -2652.60881389
  atomic energy  EATOM  =      8415.03548706
  ---------------------------------------------------
  free energy    TOTEN  =      -417.39602304 eV

  energy without entropy =     -417.39602304  energy(sigma->0) =     -417.39602304


--------------------------------------------------------------------------------------------------------




--------------------------------------- Iteration      1(  14)  ---------------------------------------


    POTLOK:  cpu time    4.2157: real time    4.2520
    SETDIJ:  cpu time    0.0541: real time    0.0543
    TRIAL :  cpu time    1.1592: real time    1.1696
    CORREC:  cpu time    4.6998: real time    4.7340
    CHARGE:  cpu time    0.1767: real time    0.1783
    --------------------------------------------
      LOOP:  cpu time   10.3298: real time   10.4180

 eigenvalue-minimisations  :     0
 total energy-change (2. order) :-0.3356118E-02  (-0.1220479E-02)
 number of electron     216.0000000 magnetization 
 augmentation part       -0.4136303 magnetization 

 Free energy of the ion-electron system (eV)
  ---------------------------------------------------
  alpha Z        PSCENC =        47.94900195
  Ewald energy   TEWEN  =     42432.44515335
  -Hartree energ DENC   =    -49397.69710006
  -exchange      EXHF   =         0.00000000
  -V(xc)+E(xc)   XCENC  =       443.99671024
  PAW double counting   =    107123.12810553  -106829.64352794
  entropy T*S    EENTRO =        -0.00000000
  eigenvalues    EBANDS =     -2652.61320929
  atomic energy  EATOM  =      8415.03548706
  ---------------------------------------------------
  free energy    TOTEN  =      -417.39937915 eV

  energy without entropy =     -417.39937915  energy(sigma->0) =     -417.39937915


--------------------------------------------------------------------------------------------------------




--------------------------------------- Iteration      1(  15)  ---------------------------------------


    POTLOK:  cpu time    4.3043: real time    4.3420
    SETDIJ:  cpu time    0.0677: real time    0.0679
    TRIAL :  cpu time    1.3079: real time    1.3195
    CORREC:  cpu time    4.7399: real time    4.7779
    CHARGE:  cpu time    0.1767: real time    0.1783
    --------------------------------------------
      LOOP:  cpu time   10.6584: real time   10.7500

 eigenvalue-minimisations  :     0
 total energy-change (2. order) :-0.1222535E-02  (-0.6242803E-03)
 number of electron     216.0000000 magnetization 
 augmentation part       -0.4131437 magnetization 

 Free energy of the ion-electron system (eV)
  ---------------------------------------------------
  alpha Z        PSCENC =        47.94900195
  Ewald energy   TEWEN  =     42432.44515335
  -Hartree energ DENC   =    -49397.33030239
  -exchange      EXHF   =         0.00000000
  -V(xc)+E(xc)   XCENC  =       443.97683764
  PAW double counting   =    107110.71867680  -106817.23256047
  entropy T*S    EENTRO =        -0.00000000
  eigenvalues    EBANDS =     -2652.96289564
  atomic energy  EATOM  =      8415.03548706
  ---------------------------------------------------
  free energy    TOTEN  =      -417.40060169 eV

  energy without entropy =     -417.40060169  energy(sigma->0) =     -417.40060169


--------------------------------------------------------------------------------------------------------




--------------------------------------- Iteration      1(  16)  ---------------------------------------


    POTLOK:  cpu time    4.2018: real time    4.2319
    SETDIJ:  cpu time    0.0541: real time    0.0543
    TRIAL :  cpu time    1.1526: real time    1.1637
    CORREC:  cpu time    4.7014: real time    4.7390
    CHARGE:  cpu time    0.1798: real time    0.1818
    --------------------------------------------
      LOOP:  cpu time   10.3125: real time   10.4008

 eigenvalue-minimisations  :     0
 total energy-change (2. order) :-0.6257341E-03  (-0.3434291E-03)
 number of electron     216.0000000 magnetization 
 augmentation part       -0.4130208 magnetization 

 Free energy of the ion-electron system (eV)
  ---------------------------------------------------
  alpha Z        PSCENC =        47.94900195
  Ewald energy   TEWEN  =     42432.44515335
  -Hartree energ DENC   =    -49397.83953049
  -exchange      EXHF   =         0.00000000
  -V(xc)+E(xc)   XCENC  =       443.99377049
  PAW double counting   =    107045.39681425  -106751.91293508
  entropy T*S    EENTRO =        -0.00000000
  eigenvalues    EBANDS =     -2652.46898897
  atomic energy  EATOM  =      8415.03548706
  ---------------------------------------------------
  free energy    TOTEN  =      -417.40122742 eV

  energy without entropy =     -417.40122742  energy(sigma->0) =     -417.40122742


--------------------------------------------------------------------------------------------------------




--------------------------------------- Iteration      1(  17)  ---------------------------------------


    POTLOK:  cpu time    4.2174: real time    4.2461
    SETDIJ:  cpu time    0.0542: real time    0.0544
    TRIAL :  cpu time    1.1509: real time    1.1615
    CORREC:  cpu time    4.6900: real time    4.7248
    CHARGE:  cpu time    0.1769: real time    0.1788
    --------------------------------------------
      LOOP:  cpu time   10.3338: real time   10.4121

 eigenvalue-minimisations  :     0
 total energy-change (2. order) :-0.3447407E-03  (-0.1431168E-03)
 number of electron     216.0000000 magnetization 
 augmentation part       -0.4131186 magnetization 

 Free energy of the ion-electron system (eV)
  ---------------------------------------------------
  alpha Z        PSCENC =        47.94900195
  Ewald energy   TEWEN  =     42432.44515335
  -Hartree energ DENC   =    -49398.01167447
  -exchange      EXHF   =         0.00000000
  -V(xc)+E(xc)   XCENC  =       443.99497484
  PAW double counting   =    106983.85051215  -106690.36571737
  entropy T*S    EENTRO =        -0.00000000
  eigenvalues    EBANDS =     -2652.29930969
  atomic energy  EATOM  =      8415.03548706
  ---------------------------------------------------
  free energy    TOTEN  =      -417.40157216 eV

  energy without entropy =     -417.40157216  energy(sigma->0) =     -417.40157216


--------------------------------------------------------------------------------------------------------




--------------------------------------- Iteration      1(  18)  ---------------------------------------


    POTLOK:  cpu time    4.2152: real time    4.2446
    SETDIJ:  cpu time    0.0541: real time    0.0543
    TRIAL :  cpu time    1.1518: real time    1.1626
    CORREC:  cpu time    4.6999: real time    4.7475
    CHARGE:  cpu time    0.1754: real time    0.1772
    --------------------------------------------
      LOOP:  cpu time   10.3235: real time   10.4166

 eigenvalue-minimisations  :     0
 total energy-change (2. order) :-0.1431703E-03  (-0.5419717E-04)
 number of electron     216.0000000 magnetization 
 augmentation part       -0.4133167 magnetization 

 Free energy of the ion-electron system (eV)
  ---------------------------------------------------
  alpha Z        PSCENC =        47.94900195
  Ewald energy   TEWEN  =     42432.44515335
  -Hartree energ DENC   =    -49398.05802943
  -exchange      EXHF   =         0.00000000
  -V(xc)+E(xc)   XCENC  =       443.99744693
  PAW double counting   =    106974.19388557  -106680.70857144
  entropy T*S    EENTRO =        -0.00000000
  eigenvalues    EBANDS =     -2652.25608935
  atomic energy  EATOM  =      8415.03548706
  ---------------------------------------------------
  free energy    TOTEN  =      -417.40171533 eV

  energy without entropy =     -417.40171533  energy(sigma->0) =     -417.40171533


--------------------------------------------------------------------------------------------------------




--------------------------------------- Iteration      1(  19)  ---------------------------------------


    POTLOK:  cpu time    4.2734: real time    4.3037
    SETDIJ:  cpu time    0.0542: real time    0.0544
    TRIAL :  cpu time    1.1538: real time    1.1641
    CORREC:  cpu time    4.7026: real time    4.7378
    CHARGE:  cpu time    0.1771: real time    0.1788
    --------------------------------------------
      LOOP:  cpu time   10.4000: real time   10.4824

 eigenvalue-minimisations  :     0
 total energy-change (2. order) :-0.5386144E-04  (-0.2286767E-04)
 number of electron     216.0000000 magnetization 
 augmentation part       -0.4134287 magnetization 

 Free energy of the ion-electron system (eV)
  ---------------------------------------------------
  alpha Z        PSCENC =        47.94900195
  Ewald energy   TEWEN  =     42432.44515335
  -Hartree energ DENC   =    -49398.05209650
  -exchange      EXHF   =         0.00000000
  -V(xc)+E(xc)   XCENC  =       443.99700208
  PAW double counting   =    106989.02127451  -106695.53524427
  entropy T*S    EENTRO =        -0.00000000
  eigenvalues    EBANDS =     -2652.26234739
  atomic energy  EATOM  =      8415.03548706
  ---------------------------------------------------
  free energy    TOTEN  =      -417.40176920 eV

  energy without entropy =     -417.40176920  energy(sigma->0) =     -417.40176920


--------------------------------------------------------------------------------------------------------




--------------------------------------- Iteration      1(  20)  ---------------------------------------


    POTLOK:  cpu time    4.2067: real time    4.2371
    SETDIJ:  cpu time    0.0540: real time    0.0543
    TRIAL :  cpu time    1.1508: real time    1.1616
    CORREC:  cpu time    4.6997: real time    4.7335
    CHARGE:  cpu time    0.1776: real time    0.1793
    --------------------------------------------
      LOOP:  cpu time   10.3208: real time   10.4032

 eigenvalue-minimisations  :     0
 total energy-change (2. order) :-0.2265201E-04  (-0.1452990E-04)
 number of electron     216.0000000 magnetization 
 augmentation part       -0.4134749 magnetization 

 Free energy of the ion-electron system (eV)
  ---------------------------------------------------
  alpha Z        PSCENC =        47.94900195
  Ewald energy   TEWEN  =     42432.44515335
  -Hartree energ DENC   =    -49398.06501216
  -exchange      EXHF   =         0.00000000
  -V(xc)+E(xc)   XCENC  =       443.99726059
  PAW double counting   =    107002.78380224  -106709.29760319
  entropy T*S    EENTRO =        -0.00000000
  eigenvalues    EBANDS =     -2652.24988170
  atomic energy  EATOM  =      8415.03548706
  ---------------------------------------------------
  free energy    TOTEN  =      -417.40179185 eV

  energy without entropy =     -417.40179185  energy(sigma->0) =     -417.40179185


--------------------------------------------------------------------------------------------------------




--------------------------------------- Iteration      1(  21)  ---------------------------------------


    POTLOK:  cpu time    4.2464: real time    4.2784
    SETDIJ:  cpu time    0.0540: real time    0.0542
    TRIAL :  cpu time    1.1526: real time    1.1632
    CORREC:  cpu time    4.7112: real time    4.7571
    CHARGE:  cpu time    0.1768: real time    0.1786
    --------------------------------------------
      LOOP:  cpu time   10.3598: real time   10.4634

 eigenvalue-minimisations  :     0
 total energy-change (2. order) :-0.1435832E-04  (-0.8561465E-05)
 number of electron     216.0000000 magnetization 
 augmentation part       -0.4134693 magnetization 

 Free energy of the ion-electron system (eV)
  ---------------------------------------------------
  alpha Z        PSCENC =        47.94900195
  Ewald energy   TEWEN  =     42432.44515335
  -Hartree energ DENC   =    -49398.05790902
  -exchange      EXHF   =         0.00000000
  -V(xc)+E(xc)   XCENC  =       443.99713403
  PAW double counting   =    107011.95770965  -106718.47161818
  entropy T*S    EENTRO =        -0.00000000
  eigenvalues    EBANDS =     -2652.25676506
  atomic energy  EATOM  =      8415.03548706
  ---------------------------------------------------
  free energy    TOTEN  =      -417.40180621 eV

  energy without entropy =     -417.40180621  energy(sigma->0) =     -417.40180621


--------------------------------------------------------------------------------------------------------




--------------------------------------- Iteration      1(  22)  ---------------------------------------


    POTLOK:  cpu time    4.2189: real time    4.2490
    SETDIJ:  cpu time    0.0541: real time    0.0543
    TRIAL :  cpu time    1.1531: real time    1.1636
    CORREC:  cpu time    4.7260: real time    4.7619
    CHARGE:  cpu time    0.1755: real time    0.1783
    --------------------------------------------
      LOOP:  cpu time   10.3659: real time   10.4481

 eigenvalue-minimisations  :     0
 total energy-change (2. order) :-0.8527626E-05  (-0.3625354E-05)
 number of electron     216.0000000 magnetization 
 augmentation part       -0.4134357 magnetization 

 Free energy of the ion-electron system (eV)
  ---------------------------------------------------
  alpha Z        PSCENC =        47.94900195
  Ewald energy   TEWEN  =     42432.44515335
  -Hartree energ DENC   =    -49398.01488312
  -exchange      EXHF   =         0.00000000
  -V(xc)+E(xc)   XCENC  =       443.99563608
  PAW double counting   =    107013.16623651  -106719.68020188
  entropy T*S    EENTRO =        -0.00000000
  eigenvalues    EBANDS =     -2652.29824469
  atomic energy  EATOM  =      8415.03548706
  ---------------------------------------------------
  free energy    TOTEN  =      -417.40181473 eV

  energy without entropy =     -417.40181473  energy(sigma->0) =     -417.40181473


--------------------------------------------------------------------------------------------------------




--------------------------------------- Iteration      1(  23)  ---------------------------------------


    POTLOK:  cpu time    4.2110: real time    4.2399
    SETDIJ:  cpu time    0.0542: real time    0.0544
    TRIAL :  cpu time    1.1516: real time    1.1623
    CORREC:  cpu time    4.7062: real time    4.7426
    CHARGE:  cpu time    0.1769: real time    0.1786
    --------------------------------------------
      LOOP:  cpu time   10.3543: real time   10.4376

 eigenvalue-minimisations  :     0
 total energy-change (2. order) :-0.3654452E-05  (-0.1488415E-05)
 number of electron     216.0000000 magnetization 
 augmentation part       -0.4134232 magnetization 

 Free energy of the ion-electron system (eV)
  ---------------------------------------------------
  alpha Z        PSCENC =        47.94900195
  Ewald energy   TEWEN  =     42432.44515335
  -Hartree energ DENC   =    -49398.01663933
  -exchange      EXHF   =         0.00000000
  -V(xc)+E(xc)   XCENC  =       443.99599918
  PAW double counting   =    107011.12483275  -106717.63897126
  entropy T*S    EENTRO =        -0.00000000
  eigenvalues    EBANDS =     -2652.29668209
  atomic energy  EATOM  =      8415.03548706
  ---------------------------------------------------
  free energy    TOTEN  =      -417.40181839 eV

  energy without entropy =     -417.40181839  energy(sigma->0) =     -417.40181839


--------------------------------------------------------------------------------------------------------




--------------------------------------- Iteration      1(  24)  ---------------------------------------


    POTLOK:  cpu time    4.1981: real time    4.2280
    SETDIJ:  cpu time    0.0542: real time    0.0543
    TRIAL :  cpu time    1.1631: real time    1.1749
    CORREC:  cpu time    4.7004: real time    4.7375
    CHARGE:  cpu time    0.1774: real time    0.1792
    --------------------------------------------
      LOOP:  cpu time   10.3361: real time   10.4444

 eigenvalue-minimisations  :     0
 total energy-change (2. order) :-0.1506938E-05  (-0.6694219E-06)
 number of electron     216.0000000 magnetization 
 augmentation part       -0.4134171 magnetization 

 Free energy of the ion-electron system (eV)
  ---------------------------------------------------
  alpha Z        PSCENC =        47.94900195
  Ewald energy   TEWEN  =     42432.44515335
  -Hartree energ DENC   =    -49398.01006052
  -exchange      EXHF   =         0.00000000
  -V(xc)+E(xc)   XCENC  =       443.99586651
  PAW double counting   =    107009.80504761  -106716.31916683
  entropy T*S    EENTRO =        -0.00000000
  eigenvalues    EBANDS =     -2652.30314904
  atomic energy  EATOM  =      8415.03548706
  ---------------------------------------------------
  free energy    TOTEN  =      -417.40181989 eV

  energy without entropy =     -417.40181989  energy(sigma->0) =     -417.40181989


--------------------------------------------------------------------------------------------------------




--------------------------------------- Iteration      1(  25)  ---------------------------------------


    POTLOK:  cpu time    4.2052: real time    4.2363
    SETDIJ:  cpu time    0.0540: real time    0.0542
    TRIAL :  cpu time    1.1524: real time    1.1626
    CORREC:  cpu time    4.7226: real time    4.7611
    CHARGE:  cpu time    0.1775: real time    0.1792
    --------------------------------------------
      LOOP:  cpu time   10.3364: real time   10.4462

 eigenvalue-minimisations  :     0
 total energy-change (2. order) :-0.6904447E-06  (-0.3231969E-06)
 number of electron     216.0000000 magnetization 
 augmentation part       -0.4134128 magnetization 

 Free energy of the ion-electron system (eV)
  ---------------------------------------------------
  alpha Z        PSCENC =        47.94900195
  Ewald energy   TEWEN  =     42432.44515335
  -Hartree energ DENC   =    -49398.00878548
  -exchange      EXHF   =         0.00000000
  -V(xc)+E(xc)   XCENC  =       443.99591881
  PAW double counting   =    107009.38966862  -106715.90376400
  entropy T*S    EENTRO =        -0.00000000
  eigenvalues    EBANDS =     -2652.30450090
  atomic energy  EATOM  =      8415.03548706
  ---------------------------------------------------
  free energy    TOTEN  =      -417.40182058 eV

  energy without entropy =     -417.40182058  energy(sigma->0) =     -417.40182058


--------------------------------------------------------------------------------------------------------




--------------------------------------- Iteration      1(  26)  ---------------------------------------


    POTLOK:  cpu time    4.2247: real time    4.2563
    SETDIJ:  cpu time    0.0541: real time    0.0543
    TRIAL :  cpu time    1.1516: real time    1.1643
    CORREC:  cpu time    4.7173: real time    4.7547
    CHARGE:  cpu time    0.1773: real time    0.1790
    --------------------------------------------
      LOOP:  cpu time   10.3483: real time   10.4683

 eigenvalue-minimisations  :     0
 total energy-change (2. order) :-0.3342138E-06  (-0.1623682E-06)
 number of electron     216.0000000 magnetization 
 augmentation part       -0.4134103 magnetization 

 Free energy of the ion-electron system (eV)
  ---------------------------------------------------
  alpha Z        PSCENC =        47.94900195
  Ewald energy   TEWEN  =     42432.44515335
  -Hartree energ DENC   =    -49398.01281386
  -exchange      EXHF   =         0.00000000
  -V(xc)+E(xc)   XCENC  =       443.99604556
  PAW double counting   =    107009.23596656  -106715.75005715
  entropy T*S    EENTRO =        -0.00000000
  eigenvalues    EBANDS =     -2652.30060440
  atomic energy  EATOM  =      8415.03548706
  ---------------------------------------------------
  free energy    TOTEN  =      -417.40182092 eV

  energy without entropy =     -417.40182092  energy(sigma->0) =     -417.40182092


--------------------------------------------------------------------------------------------------------




--------------------------------------- Iteration      1(  27)  ---------------------------------------


    POTLOK:  cpu time    4.2481: real time    4.2801
    SETDIJ:  cpu time    0.0540: real time    0.0541
    TRIAL :  cpu time    1.1707: real time    1.1814
    CORREC:  cpu time    4.6950: real time    4.7344
    CHARGE:  cpu time    0.1769: real time    0.1789
    --------------------------------------------
      LOOP:  cpu time   10.3706: real time   10.4592

 eigenvalue-minimisations  :     0
 total energy-change (2. order) :-0.1670996E-06  (-0.8499831E-07)
 number of electron     216.0000000 magnetization 
 augmentation part       -0.4134074 magnetization 

 Free energy of the ion-electron system (eV)
  ---------------------------------------------------
  alpha Z        PSCENC =        47.94900195
  Ewald energy   TEWEN  =     42432.44515335
  -Hartree energ DENC   =    -49398.01412181
  -exchange      EXHF   =         0.00000000
  -V(xc)+E(xc)   XCENC  =       443.99603141
  PAW double counting   =    107009.18523003  -106715.69931577
  entropy T*S    EENTRO =        -0.00000000
  eigenvalues    EBANDS =     -2652.29928732
  atomic energy  EATOM  =      8415.03548706
  ---------------------------------------------------
  free energy    TOTEN  =      -417.40182109 eV

  energy without entropy =     -417.40182109  energy(sigma->0) =     -417.40182109


--------------------------------------------------------------------------------------------------------




--------------------------------------- Iteration      1(  28)  ---------------------------------------


    POTLOK:  cpu time    4.2174: real time    4.2547
    SETDIJ:  cpu time    0.0541: real time    0.0543
    TRIAL :  cpu time    1.1671: real time    1.1783
    CORREC:  cpu time    4.7205: real time    4.7673
    EDDIAG:  cpu time    0.4349: real time    0.4407
    CHARGE:  cpu time    0.1779: real time    0.1796
[...]
      21 -86.0232      22 -86.0230      23 -86.0263      24 -86.0262      25 -86.0231
      26 -86.0233      27 -86.0241      28 -86.0251      29 -86.0232      30 -86.0231
      31 -86.0254      32 -86.0248      33 -86.0235      34 -86.0234      35 -86.0235
      36 -86.0236      37 -86.0243      38 -86.0245      39 -86.0245      40 -86.0244
      41 -86.0244      42 -86.0246      43 -86.0240      44 -86.0248      45 -86.0232
      46 -86.0234      47 -86.0233      48 -86.0232      49 -86.0245      50 -86.0241
      51 -89.9160      52-120.4334      53-120.4328
 
 
 
 E-fermi :  -4.3762     XC(G=0):  -2.2823     alpha+bet : -1.6890

 Fermi energy:        -4.3762037680

 k-point     1 :       0.0000    0.0000    0.0000
  band No.  band energies     occupation 
      1     -27.6456      2.00000
      2     -26.6520      2.00000
      3     -22.4388      2.00000
      4     -21.5022      2.00000
      5     -21.5010      2.00000
      6     -21.5007      2.00000
      7     -21.5004      2.00000
      8     -21.5002      2.00000
      9     -21.5000      2.00000
     10     -19.6629      2.00000
     11     -19.6629      2.00000
     12     -19.6626      2.00000
     13     -19.6619      2.00000
     14     -19.6615      2.00000
     15     -19.6613      2.00000
     16     -18.7678      2.00000
     17     -18.7676      2.00000
     18     -18.7673      2.00000
     19     -18.7670      2.00000
     20     -18.7663      2.00000
     21     -18.7661      2.00000
     22     -16.6070      2.00000
     23     -16.6066      2.00000
     24     -16.6059      2.00000
     25     -16.6057      2.00000
     26     -16.6052      2.00000
     27     -16.6052      2.00000
     28     -15.6281      2.00000
     29     -15.6281      2.00000
     30     -15.6272      2.00000
     31     -15.6270      2.00000
     32     -15.6266      2.00000
     33     -15.6265      2.00000
     34     -14.2792      2.00000
     35     -14.2791      2.00000
     36     -14.2785      2.00000
     37     -14.2783      2.00000
     38     -14.2783      2.00000
     39     -14.2780      2.00000
     40     -12.4887      2.00000
     41     -11.9032      2.00000
     42     -11.9029      2.00000
     43     -11.9025      2.00000
     44     -11.9024      2.00000
     45     -11.9013      2.00000
     46     -11.9010      2.00000
     47     -11.8103      2.00000
     48     -11.8102      2.00000
     49     -11.8095      2.00000
     50     -11.8095      2.00000
     51     -11.8093      2.00000
     52     -11.8091      2.00000
     53     -11.3309      2.00000
     54     -11.2683      2.00000
     55     -11.2681      2.00000
     56     -10.5958      2.00000
     57     -10.4402      2.00000
     58     -10.4401      2.00000
     59     -10.4385      2.00000
     60     -10.4382      2.00000
     61     -10.4380      2.00000
     62     -10.4379      2.00000
     63      -9.4794      2.00000
     64      -9.4788      2.00000
     65      -9.4787      2.00000
     66      -9.4779      2.00000
     67      -9.4776      2.00000
     68      -9.4775      2.00000
     69      -9.1760      2.00000
     70      -9.1752      2.00000
     71      -9.1747      2.00000
     72      -9.1747      2.00000
     73      -9.1743      2.00000
     74      -9.1741      2.00000
     75      -9.1166      2.00000
     76      -9.1163      2.00000
     77      -9.1157      2.00000
     78      -9.1156      2.00000
     79      -9.1154      2.00000
     80      -9.1146      2.00000
     81      -7.7314      2.00000
     82      -7.7311      2.00000
     83      -7.5268      2.00000
     84      -7.5252      2.00000
     85      -7.5250      2.00000
     86      -7.5246      2.00000
     87      -7.5236      2.00000
     88      -7.5236      2.00000
     89      -7.3487      2.00000
     90      -7.3483      2.00000
     91      -7.3482      2.00000
     92      -7.3478      2.00000
     93      -7.3476      2.00000
     94      -7.3473      2.00000
     95      -6.4514      2.00000
     96      -6.4512      2.00000
     97      -6.4508      2.00000
     98      -6.4506      2.00000
     99      -6.4502      2.00000
    100      -6.4500      2.00000
    101      -6.0471      2.00000
    102      -6.0449      2.00000
    103      -4.4671      2.00000
    104      -4.4667      2.00000
    105      -4.4662      2.00000
    106      -4.4662      2.00000
    107      -4.4655      2.00000
    108      -4.4653      2.00000
    109      -1.6667      0.00000
    110      -1.6664      0.00000
    111      -1.6661      0.00000
    112      -1.6658      0.00000
    113      -1.6653      0.00000
    114      -1.6650      0.00000
    115      -0.2141      0.00000
    116       0.1620      0.00000
    117       0.1944      0.00000
    118       0.1947      0.00000
    119       0.1952      0.00000
    120       0.1953      0.00000
    121       0.1955      0.00000
    122       0.1971      0.00000
    123       0.7263      0.00000
    124       1.0737      0.00000
    125       1.1044      0.00000
    126       1.1084      0.00000
    127       1.1528      0.00000
    128       1.1533      0.00000
    129       1.1588      0.00000
    130       1.3398      0.00000
    131       1.6246      0.00000
    132       1.7113      0.00000
    133       1.7725      0.00000
    134       1.8868      0.00000
    135       1.9100      0.00000
    136       1.9221      0.00000


--------------------------------------------------------------------------------------------------------


 soft charge-density along one line, spin component           1
         0         1         2         3         4         5         6         7         8         9
 total charge-density along one line
 
 pseudopotential strength for first ion, spin component:           1
 12.721  21.408   0.000   0.000   0.000   0.000   0.000   0.000
 21.408  36.024   0.000   0.000   0.000   0.000   0.000   0.000
  0.000   0.000  -3.196  -0.000   0.000  -5.729  -0.000   0.000
  0.000   0.000  -0.000  -3.199  -0.000  -0.000  -5.733  -0.000
  0.000   0.000   0.000  -0.000  -3.196   0.000  -0.000  -5.729
  0.000   0.000  -5.729  -0.000   0.000 -10.246  -0.000   0.000
  0.000   0.000  -0.000  -5.733  -0.000  -0.000 -10.253  -0.000
  0.000   0.000   0.000  -0.000  -5.729   0.000  -0.000 -10.246
 total augmentation occupancy for first ion, spin component:           1
  7.653  -2.660  -0.000  -0.002  -0.000   0.000   0.001   0.000
 -2.660   0.962   0.000   0.001   0.000  -0.000  -0.000  -0.000
 -0.000   0.000   7.069  -0.008   0.000  -2.370   0.003  -0.000
 -0.002   0.001  -0.008   3.114  -0.000   0.003  -0.813   0.000
 -0.000   0.000   0.000  -0.000   7.068  -0.000   0.000  -2.370
  0.000  -0.000  -2.370   0.003  -0.000   0.809  -0.001   0.000
  0.001  -0.000   0.003  -0.813   0.000  -0.001   0.219  -0.000
  0.000  -0.000  -0.000   0.000  -2.370   0.000  -0.000   0.809


------------------------ aborting loop because EDIFF is reached ----------------------------------------


    FORLOC:  cpu time    0.0665: real time    0.0671
    FORNL :  cpu time    0.8417: real time    0.8463
    FORCOR:  cpu time    4.3243: real time    4.3585
    OFIELD:  cpu time    0.0015: real time    0.0015

 VOLUME and BASIS-vectors are now :
 -----------------------------------------------------------------------------
  energy-cutoff  :     1000.00
  volume of cell :     3288.85
      direct lattice vectors                 reciprocal lattice vectors
    12.325000000  0.000000000  0.000000000     0.081135903  0.046843835  0.000000000
    -6.162500000 10.673763102  0.000000000     0.000000000  0.093687670  0.000000000
     0.000000000  0.000000000 25.000000000     0.000000000  0.000000000  0.040000000

  length of vectors
    12.325000000 12.325000000 25.000000000     0.093687670  0.093687670  0.040000000


 FORCES acting on ions:
    Electron-Ion                     Ewald-Force                    Non-Local-Force
 -----------------------------------------------------------------------------------------------
   0.138E+01 0.121E+01 0.181E+02   -.138E+01 -.121E+01 -.181E+02   0.516E-02 -.715E-03 0.644E-02
   0.192E+01 0.982E+00 0.196E+02   -.193E+01 -.979E+00 -.196E+02   0.404E-02 -.329E-02 -.534E-02
   0.782E+00 0.213E+01 0.201E+02   -.783E+00 -.213E+01 -.201E+02   -.198E-03 0.124E-01 0.158E-03
   0.989E+00 0.143E+01 0.232E+02   -.987E+00 -.143E+01 -.232E+02   0.122E-01 0.102E-02 -.133E-01
   0.149E+01 0.371E+00 0.185E+02   -.149E+01 -.371E+00 -.185E+02   0.233E-04 -.576E-02 0.312E-02
   0.153E+01 -.327E+00 0.187E+02   -.153E+01 0.329E+00 -.187E+02   -.622E-02 0.319E-02 -.318E-02
   0.191E+01 0.742E+00 0.229E+02   -.191E+01 -.742E+00 -.229E+02   0.129E-01 -.195E-01 -.562E-02
   0.189E+01 -.649E+00 0.241E+02   -.190E+01 0.652E+00 -.240E+02   -.592E-02 -.600E-02 -.584E-02
   -.950E+00 0.199E+01 0.204E+02   0.954E+00 -.199E+01 -.204E+02   -.838E-03 -.121E-01 -.469E-02
   -.131E+01 0.111E+01 0.233E+02   0.131E+01 -.112E+01 -.233E+02   -.268E-01 0.155E-01 0.287E-02
   0.396E+00 -.409E+00 0.174E+02   -.393E+00 0.409E+00 -.174E+02   0.353E-02 -.275E-02 -.204E-03
   0.369E+00 -.309E+00 0.170E+02   -.368E+00 0.309E+00 -.170E+02   -.713E-02 0.349E-02 0.575E-02
   0.664E+00 -.153E+01 0.252E+02   -.665E+00 0.154E+01 -.251E+02   0.275E-01 -.840E-02 -.207E-02
   0.406E+00 -.220E+01 0.216E+02   -.411E+00 0.220E+01 -.216E+02   0.446E-02 0.591E-02 -.159E-01
   -.138E+01 0.835E+00 0.180E+02   0.138E+01 -.837E+00 -.180E+02   0.725E-02 -.375E-02 0.694E-02
   -.180E+01 0.522E+00 0.185E+02   0.180E+01 -.523E+00 -.185E+02   -.232E-02 0.563E-02 -.498E-02
   -.254E+00 -.101E+00 0.166E+02   0.258E+00 0.994E-01 -.166E+02   -.672E-03 0.497E-03 0.202E-02
   0.113E+00 0.870E+00 0.168E+02   -.112E+00 -.870E+00 -.168E+02   -.321E-02 0.181E-02 0.930E-02
   -.355E+00 -.212E+01 0.197E+02   0.355E+00 0.212E+01 -.197E+02   0.646E-02 -.220E-02 0.623E-03
   -.206E+00 -.128E+01 0.176E+02   0.202E+00 0.128E+01 -.176E+02   0.375E-03 -.139E-02 -.659E-03
   0.196E+01 -.852E+00 0.206E+02   -.196E+01 0.853E+00 -.205E+02   -.102E-02 -.273E-02 -.169E-01
   0.137E+01 -.111E+01 0.192E+02   -.138E+01 0.111E+01 -.192E+02   -.664E-02 0.518E-02 -.263E-02
   -.347E+00 0.626E+00 0.255E+02   0.344E+00 -.624E+00 -.255E+02   -.105E-01 0.107E-01 0.213E-02
   -.476E+00 -.984E+00 0.254E+02   0.477E+00 0.983E+00 -.254E+02   0.123E-01 -.153E-01 -.933E-02
   0.750E+00 -.279E+00 0.174E+02   -.748E+00 0.278E+00 -.174E+02   0.345E-02 -.255E-02 -.347E-02
   0.200E+00 0.646E+00 0.173E+02   -.200E+00 -.645E+00 -.173E+02   -.548E-02 0.365E-02 0.534E-02
   -.218E+01 0.266E+00 0.210E+02   0.218E+01 -.269E+00 -.210E+02   0.109E-01 0.822E-02 -.201E-02
   -.206E+01 -.828E+00 0.203E+02   0.207E+01 0.828E+00 -.203E+02   -.945E-02 0.921E-02 0.146E-02
   0.778E+00 -.158E+01 0.195E+02   -.779E+00 0.158E+01 -.195E+02   0.493E-02 0.192E-02 -.705E-02
   0.682E-01 -.697E+00 0.179E+02   -.707E-01 0.699E+00 -.179E+02   -.462E-02 0.231E-02 -.250E-02
   -.148E+01 -.151E+01 0.218E+02   0.148E+01 0.151E+01 -.218E+02   -.123E-01 -.834E-02 -.115E-01
   -.107E+01 -.201E+01 0.196E+02   0.107E+01 0.201E+01 -.196E+02   0.635E-03 -.169E-02 0.273E-02
   0.922E-01 0.416E+00 0.169E+02   -.927E-01 -.416E+00 -.169E+02   0.536E-02 -.478E-02 0.694E-02
   0.252E+00 0.386E+00 0.172E+02   -.255E+00 -.385E+00 -.172E+02   -.217E-02 0.454E-02 -.124E-02
   -.944E+00 0.170E+00 0.176E+02   0.947E+00 -.171E+00 -.176E+02   0.392E-02 -.234E-02 0.576E-02
   -.838E+00 -.377E+00 0.175E+02   0.838E+00 0.377E+00 -.175E+02   -.441E-02 0.251E-02 0.369E-02
   -.159E+01 -.849E+00 0.180E+02   0.160E+01 0.847E+00 -.180E+02   -.164E-02 0.101E-02 0.359E-02
   -.105E+01 -.841E+00 0.172E+02   0.105E+01 0.841E+00 -.173E+02   -.428E-02 0.124E-02 0.913E-02
   -.957E+00 -.121E+01 0.176E+02   0.957E+00 0.122E+01 -.176E+02   -.321E-02 0.269E-04 0.510E-02
   -.144E+00 -.331E+00 0.169E+02   0.145E+00 0.331E+00 -.169E+02   0.197E-02 0.490E-03 0.749E-02
   0.361E+00 0.905E+00 0.170E+02   -.361E+00 -.906E+00 -.170E+02   -.403E-02 0.197E-02 0.711E-02
   0.109E+01 0.167E+01 0.182E+02   -.109E+01 -.168E+01 -.182E+02   -.313E-03 -.588E-03 0.810E-02
   0.115E+00 0.150E+01 0.174E+02   -.111E+00 -.150E+01 -.174E+02   -.581E-03 0.123E-02 0.231E-02
   -.179E-01 0.220E+01 0.193E+02   0.195E-01 -.220E+01 -.193E+02   -.848E-02 0.241E-02 0.560E-02
   -.286E+00 0.535E+00 0.176E+02   0.288E+00 -.537E+00 -.176E+02   0.395E-02 -.285E-02 0.118E-02
   -.105E+01 0.131E+01 0.184E+02   0.106E+01 -.131E+01 -.184E+02   -.660E-02 0.623E-03 -.156E-02
   -.281E+00 -.657E+00 0.174E+02   0.280E+00 0.657E+00 -.174E+02   0.653E-02 -.145E-02 0.566E-02
   -.591E+00 0.211E+00 0.169E+02   0.589E+00 -.210E+00 -.169E+02   -.346E-02 0.324E-02 -.315E-02
   0.609E-01 -.405E+00 0.169E+02   -.616E-01 0.406E+00 -.169E+02   0.447E-02 -.323E-02 0.579E-02
   0.645E+00 0.460E+00 0.169E+02   -.648E+00 -.458E+00 -.169E+02   0.184E-03 0.161E-02 0.331E-02
   0.270E-02 0.216E-01 -.238E+03   -.657E-02 -.182E-01 0.238E+03   -.293E-02 0.197E-02 -.315E-02
   -.229E+03 0.156E+03 -.370E+03   0.279E+03 -.190E+03 0.374E+03   -.512E+02 0.348E+02 -.344E+01
   0.229E+03 -.156E+03 -.348E+03   -.279E+03 0.190E+03 0.345E+03   0.512E+02 -.348E+02 0.308E+01
 -----------------------------------------------------------------------------------------------
   -.704E-02 0.136E-01 0.348E+00   0.114E-12 -.114E-12 0.114E-12   0.698E-02 -.137E-01 -.349E+00
 
 
 POSITION                                       TOTAL-FORCE (eV/Angst)
 -----------------------------------------------------------------------------------
     11.98348      0.00342      0.01417         0.003154     -0.001639     -0.000937
     -0.34154      1.42665      0.01100        -0.000863     -0.000048     -0.003223
      2.12355      0.00315      0.01249        -0.001711      0.010632     -0.006123
      2.12326      1.42653      0.00641         0.013277      0.001202     -0.008025
     10.75099      2.13819      0.01213         0.000315     -0.005639     -0.000070
     -1.57382      3.56123      0.01110        -0.008917      0.004785     -0.001360
      0.89078      2.13854      0.00548         0.009447     -0.019038      0.002475
      0.89099      3.56147      0.00181        -0.012097     -0.002330      0.011630
      4.58864      0.00346      0.01135         0.003789     -0.016043     -0.003362
      4.58894      1.42623      0.00646        -0.023472      0.013207      0.013759
      9.51854      4.27281      0.01369         0.006628     -0.003118      0.000257
     -2.80632      5.69591      0.01434        -0.006493      0.003380      0.000729
      2.12300      4.27302      0.00000         0.024956     -0.004922      0.020194
      2.12335      5.69594      0.00581        -0.000677      0.009346     -0.002490
      7.05344      0.00333      0.01399         0.009361     -0.005282     -0.000386
      7.05353      1.42635      0.01368        -0.001610      0.004884     -0.003581
      8.28610      6.40752      0.01601         0.003045     -0.001508     -0.000719
     -4.03885      7.83070      0.01636        -0.002174      0.000849     -0.000093
      3.35586      6.40753      0.01007         0.005425      0.000563     -0.001201
      3.35599      7.83072      0.01320        -0.003263      0.000120     -0.000568
     -0.34146      4.27290      0.00723        -0.001966     -0.001393     -0.004325
     -0.34138      5.69591      0.00946        -0.009173      0.006514     -0.001071
      3.35624      2.13791      0.00222        -0.013543      0.011912      0.015871
      3.35573      3.56155      0.00139         0.013588     -0.015855      0.008500
     -1.57395      6.40758      0.01311         0.005467     -0.003988     -0.000505
     -1.57385      7.83068      0.01438        -0.004787      0.003735      0.000048
      5.82093      2.13784      0.01033         0.016294      0.005111     -0.002834
      5.82114      3.56097      0.01156        -0.006251      0.008508     -0.003493
      0.89092      6.40755      0.00907         0.004482      0.002322     -0.002166
      0.89106      7.83068      0.01235        -0.006876      0.003866      0.000438
      4.58871      4.27293      0.00850        -0.012836     -0.006453     -0.010468
      4.58852      5.69606      0.01149         0.001955     -0.000991     -0.003830
      9.51845      0.00337      0.01490         0.004715     -0.004662      0.000147
      9.51855      1.42644      0.01438        -0.005145      0.005472     -0.000213
      8.28593      2.13803      0.01453         0.006744     -0.003416      0.000632
      8.28613      3.56115      0.01464        -0.004278      0.002182      0.000008
      7.05356      4.27269      0.01457         0.002805     -0.001093     -0.000502
      7.05362      5.69588      0.01553        -0.002442      0.001532     -0.000067
      5.82112      6.40755      0.01489        -0.002873      0.001622      0.000047
      5.82102      7.83073      0.01579         0.002693      0.000318     -0.000277
      7.05363      8.54227      0.01631        -0.004644      0.001207      0.001130
     -5.27149      9.96549      0.01495         0.000036     -0.002096     -0.002044
     -2.80638      8.54234      0.01558         0.003238     -0.001492     -0.001056
     -2.80627      9.96553      0.01362        -0.006705     -0.000168     -0.003675
     -0.34149      8.54239      0.01378         0.005827     -0.004916      0.000292
     -0.34138      9.96550      0.01354        -0.005815     -0.000103     -0.001120
      2.12343      8.54232      0.01336         0.005828     -0.001530      0.000717
      2.12354      9.96544      0.01469        -0.005211      0.003848     -0.001749
      4.58846      8.54235      0.01505         0.003670     -0.002789      0.001011
      4.58853      9.96550      0.01517        -0.002882      0.003367      0.000195
      3.04930      2.68154      7.07107        -0.006670      0.005410      0.030785
      4.02070      2.02068      7.13549        -0.555767      0.377741     -0.054084
      2.07767      3.34267      7.01161         0.562400     -0.383123      0.016753
 -----------------------------------------------------------------------------------
    total drift:                               -0.000065     -0.000044     -0.001205


--------------------------------------------------------------------------------------------------------



  FREE ENERGIE OF THE ION-ELECTRON SYSTEM (eV)
  ---------------------------------------------------
  free  energy   TOTEN  =      -417.40182117 eV

  energy  without entropy=     -417.40182117  energy(sigma->0) =     -417.40182117
 


--------------------------------------------------------------------------------------------------------


    POTLOK:  cpu time    4.2610: real time    4.2974


--------------------------------------------------------------------------------------------------------


 writing wavefunctions
     LOOP+:  cpu time  294.5304: real time  297.2530
    4ORBIT:  cpu time    0.0000: real time    0.0000

 total amount of memory used by VASP MPI-rank0   100580. kBytes
=======================================================================

   base      :      30000. kBytes
   nonl-proj :       8229. kBytes
   fftplans  :      18352. kBytes
   grid      :      30208. kBytes
   one-center:          6. kBytes
   wavefun   :      13785. kBytes
 
  
  
 General timing and accounting informations for this job:
 ========================================================
  
                  Total CPU time used (sec):      338.341
                            User time (sec):      311.600
                          System time (sec):       26.741
                         Elapsed time (sec):      342.331
  
                   Maximum memory used (kb):      817576.
                   Average memory used (kb):          N/A
  
                          Minor page faults:       415559
                          Major page faults:           78
                 Voluntary context switches:         3799
