 vasp.6.2.1 16May21 (build Nov 06 2021 14:46:37) complex                        
  
 executed on             LinuxIFC date 2025.03.03  15:40:05
 running on  112 total cores
 distrk:  each k-point on  112 cores,    1 groups
 distr:  one band on NCORE=  28 cores,    4 groups


--------------------------------------------------------------------------------------------------------


 INCAR:
   ALGO = Conjugate
   NPAR = 4
   ISMEAR = 0
   SIGMA = 0.01
   PREC = Accurate
   EDIFF = 1E-7
   ENCUT = 1000
   ISIF = 0
   GGA = MK
   PARAM1 = 0.1234
   PARAM2 = 1.0000
   LUSE_VDW = .TRUE.
   AGGAC = 0.0000
   LASPH = .TRUE.
   SYMPREC = 1E-7

 POTCAR:    PAW_PBE C_h 06Feb2004                 
 POTCAR:    PAW_PBE O_h 06Feb2004                 
 -----------------------------------------------------------------------------
|                                                                             |
|           W    W    AA    RRRRR   N    N  II  N    N   GGGG   !!!           |
|           W    W   A  A   R    R  NN   N  II  NN   N  G    G  !!!           |
|           W    W  A    A  R    R  N N  N  II  N N  N  G       !!!           |
|           W WW W  AAAAAA  RRRRR   N  N N  II  N  N N  G  GGG   !            |
|           WW  WW  A    A  R   R   N   NN  II  N   NN  G    G                |
|           W    W  A    A  R    R  N    N  II  N    N   GGGG   !!!           |
|                                                                             |
|     For optimal performance we recommend to set                             |
|       NCORE = 2 up to number-of-cores-per-socket                            |
|     NCORE specifies how many cores store one orbital (NPAR=cpu/NCORE).      |
|     This setting can greatly improve the performance of VASP for DFT.       |
|     The default, NCORE=1 might be grossly inefficient on modern             |
|     multi-core architectures or massively parallel machines. Do your        |
|     own testing! More info at https://www.vasp.at/wiki/index.php/NCORE      |
|     Unfortunately you need to use the default for GW and RPA                |
|     calculations (for HF NCORE is supported but not extensively tested      |
|     yet).                                                                   |
|                                                                             |
 -----------------------------------------------------------------------------

 -----------------------------------------------------------------------------
|                                                                             |
|               ----> ADVICE to this user running VASP <----                  |
|                                                                             |
|     You have switched on vdW-DFT.                                           |
|     This routine was written and supplied by Jiri Klimes. We recommend      |
|     that you carefully read and cite the following publications:            |
|       J. Klimes, D.R. Bowler, A. Michelides                                 |
|          J. Phys.: Cond Matt. 22 022201 (2010)                              |
|       J. Klimes, D.R. Bowler, A. Michelides                                 |
|          Phys. Rev. B. 83, 195131 (2011)                                    |
|     and references therein.                                                 |
|                                                                             |
 -----------------------------------------------------------------------------

 POTCAR:    PAW_PBE C_h 06Feb2004                 
   VRHFIN =C: s2p2                                                                                  
   LEXCH  = PE                                                                                      
   EATOM  =   147.1560 eV,   10.8157 Ry                                                             
                                                                                                    
   TITEL  = PAW_PBE C_h 06Feb2004                                                                   
   LULTRA =        F    use ultrasoft PP ?                                                          
   IUNSCR =        1    unscreen: 0-lin 1-nonlin 2-no                                               
   RPACOR =    0.800    partial core radius                                                         
   POMASS =   12.011; ZVAL   =    4.000    mass and valenz                                          
   RCORE  =    1.100    outmost cutoff radius                                                       
   RWIGS  =    1.630; RWIGS  =    0.863    wigner-seitz radius (au A)                               
   ENMAX  =  700.000; ENMIN  =  500.000 eV                                                          
   ICORE  =        2    local potential                                                             
   LCOR   =        T    correct aug charges                                                         
   LPAW   =        T    paw PP                                                                      
   EAUG   =  946.768                                                                                
   DEXC   =    0.000                                                                                
   RMAX   =    1.128    core radius for proj-oper                                                   
   RAUG   =    1.300    factor for augmentation sphere                                              
   RDEP   =    1.162    radius for radial grids                                                     
   RDEPT  =    1.088    core radius for aug-charge                                                  
                                                                                                    
   Atomic configuration                                                                             
    4 entries                                                                                       
     n  l   j            E        occ.                                                              
     1  0  0.50      -273.3789   2.0000                                                             
     2  0  0.50       -13.7508   2.0000                                                             
     2  1  0.50        -5.2854   2.0000                                                             
     3  2  1.50        -5.4423   0.0000                                                             
   Description                                                                                      
     l       E           TYP  RCUT    TYP  RCUT                                                     
     0    -13.7508458     23  1.100                                                                 
     0     -8.2022199     23  1.100                                                                 
     1     -5.2854383     23  1.100                                                                 
     1      1.1560700     23  1.100                                                                 
     2     -5.4423304      7  1.100                                                                 
  local pseudopotential read in
  partial core-charges read in
  partial kinetic energy density read in
  atomic valenz-charges read in
  non local Contribution for L=           0  read in
    real space projection operators read in
  non local Contribution for L=           0  read in
    real space projection operators read in
  non local Contribution for L=           1  read in
    real space projection operators read in
  non local Contribution for L=           1  read in
    real space projection operators read in
    PAW grid and wavefunctions read in
 
   number of l-projection  operators is LMAX  =           4
   number of lm-projection operators is LMMAX =           8
 
 POTCAR:    PAW_PBE O_h 06Feb2004                 
   VRHFIN =O: s2p4                                                                                  
   LEXCH  = PE                                                                                      
   EATOM  =   432.3788 eV,   31.7789 Ry                                                             
                                                                                                    
   TITEL  = PAW_PBE O_h 06Feb2004                                                                   
   LULTRA =        F    use ultrasoft PP ?                                                          
   IUNSCR =        1    unscreen: 0-lin 1-nonlin 2-no                                               
   RPACOR =    0.800    partial core radius                                                         
   POMASS =   16.000; ZVAL   =    6.000    mass and valenz                                          
   RCORE  =    1.100    outmost cutoff radius                                                       
   RWIGS  =    1.400; RWIGS  =    0.741    wigner-seitz radius (au A)                               
   ENMAX  =  700.000; ENMIN  =  500.000 eV                                                          
   ICORE  =        2    local potential                                                             
   LCOR   =        T    correct aug charges                                                         
   LPAW   =        T    paw PP                                                                      
   EAUG   =  888.804                                                                                
   DEXC   =    0.000                                                                                
   RMAX   =    1.128    core radius for proj-oper                                                   
   RAUG   =    1.300    factor for augmentation sphere                                              
   RDEP   =    1.125    radius for radial grids                                                     
   RDEPT  =    1.088    core radius for aug-charge                                                  
                                                                                                    
   Atomic configuration                                                                             
    4 entries                                                                                       
     n  l   j            E        occ.                                                              
     1  0  0.50      -514.6923   2.0000                                                             
     2  0  0.50       -23.9615   2.0000                                                             
     2  1  0.50        -9.0305   4.0000                                                             
     3  2  1.50        -9.5241   0.0000                                                             
   Description                                                                                      
     l       E           TYP  RCUT    TYP  RCUT                                                     
     0    -23.9615319     23  1.100                                                                 
     0    -25.3221145     23  1.100                                                                 
     1     -9.0304911     23  1.100                                                                 
     1     -5.4802209     23  1.100                                                                 
     2     -9.5240782      7  1.100                                                                 
  local pseudopotential read in
  partial core-charges read in
  partial kinetic energy density read in
  atomic valenz-charges read in
  non local Contribution for L=           0  read in
    real space projection operators read in
  non local Contribution for L=           0  read in
    real space projection operators read in
  non local Contribution for L=           1  read in
    real space projection operators read in
  non local Contribution for L=           1  read in
    real space projection operators read in
    PAW grid and wavefunctions read in
 
   number of l-projection  operators is LMAX  =           4
   number of lm-projection operators is LMMAX =           8
 
 -----------------------------------------------------------------------------
|                                                                             |
|               ----> ADVICE to this user running VASP <----                  |
|                                                                             |
|     You have a (more or less) 'large supercell' and for larger cells it     |
|     might be more efficient to use real-space projection operators.         |
|     Therefore, try LREAL= Auto in the INCAR file.                           |
|     Mind: For very accurate calculation, you might also keep the            |
|     reciprocal projection scheme (i.e. LREAL=.FALSE.).                      |
|                                                                             |
 -----------------------------------------------------------------------------

 -----------------------------------------------------------------------------
|                                                                             |
|               ----> ADVICE to this user running VASP <----                  |
|                                                                             |
|     You enforced a specific xc type in the INCAR file but a different       |
|     type was found in the POTCAR file.                                      |
|     I HOPE YOU KNOW WHAT YOU ARE DOING!                                     |
|                                                                             |
 -----------------------------------------------------------------------------

  PAW_PBE C_h 06Feb2004                 :
 energy of atom  1       EATOM= -147.1560
 kinetic energy error for atom=    0.0031 (will be added to EATOM!!)
  PAW_PBE O_h 06Feb2004                 :
 energy of atom  2       EATOM= -432.3788
 kinetic energy error for atom=    0.0171 (will be added to EATOM!!)
 
 
 POSCAR:  C  O
  positions in cartesian coordinates
  No initial velocities read in
 exchange correlation table for  LEXCH =       43
   RHO(1)=    0.500       N(1)  =     2000
   RHO(2)=  100.500       N(2)  =     4000
 


--------------------------------------------------------------------------------------------------------


 ion  position               nearest neighbor table
   1  0.972  0.000  0.001-  50 1.42   2 1.42  42 1.42
   2  0.039  0.134  0.001-   5 1.42   7 1.42   1 1.42
   3  0.172  0.000  0.001-  42 1.42  44 1.42   4 1.42
   4  0.239  0.134  0.000-   7 1.42   3 1.42  23 1.42
   5  0.972  0.200  0.001-   6 1.42   2 1.42  34 1.42
   6  0.039  0.334  0.001-   5 1.42  21 1.42  11 1.42
   7  0.172  0.200  0.000-   8 1.42   2 1.42   4 1.42
   8  0.239  0.334  0.000-  13 1.42   7 1.42  21 1.42
   9  0.372  0.000  0.001-  10 1.42  44 1.42  46 1.42
  10  0.439  0.134  0.000-  27 1.42   9 1.42  23 1.42
  11  0.972  0.400  0.001-  12 1.42  36 1.42   6 1.42
  12  0.039  0.534  0.001-  25 1.42  11 1.42  17 1.42
  13  0.372  0.400  0.000-   8 1.42  14 1.42  24 1.42
  14  0.439  0.534  0.000-  13 1.42  29 1.42  19 1.42
  15  0.572  0.000  0.001-  46 1.42  16 1.42  48 1.42
  16  0.639  0.134  0.001-  15 1.42  35 1.42  27 1.42
  17  0.972  0.600  0.001-  38 1.42  18 1.42  12 1.42
  18  0.039  0.734  0.001-  43 1.42  41 1.42  17 1.42
  19  0.572  0.600  0.001-  14 1.42  20 1.42  32 1.42
  20  0.639  0.734  0.001-  49 1.42  19 1.42  47 1.42
  21  0.172  0.400  0.000-  22 1.42   8 1.42   6 1.42
  22  0.239  0.534  0.000-  21 1.42  29 1.42  25 1.42
  23  0.372  0.200  0.000-  10 1.42   4 1.42  24 1.42
  24  0.439  0.334  0.000-  13 1.42  31 1.42  23 1.42
  25  0.172  0.600  0.001-  26 1.42  12 1.42  22 1.42
  26  0.239  0.734  0.001-  25 1.42  45 1.42  43 1.42
  27  0.572  0.200  0.001-  10 1.42  28 1.42  16 1.42
  28  0.639  0.334  0.001-  27 1.42  37 1.42  31 1.42
  29  0.372  0.600  0.000-  22 1.42  14 1.42  30 1.42
  30  0.439  0.734  0.001-  47 1.42  29 1.42  45 1.42
  31  0.572  0.400  0.000-  32 1.42  28 1.42  24 1.42
  32  0.639  0.534  0.001-  31 1.42  39 1.42  19 1.42
  33  0.772  0.000  0.001-  34 1.42  48 1.42  50 1.42
  34  0.839  0.134  0.001-  33 1.42   5 1.42  35 1.42
  35  0.772  0.200  0.001-  36 1.42  16 1.42  34 1.42
  36  0.839  0.334  0.001-  35 1.42  11 1.42  37 1.42
  37  0.772  0.400  0.001-  28 1.42  38 1.42  36 1.42
  38  0.839  0.534  0.001-  17 1.42  37 1.42  39 1.42
  39  0.772  0.600  0.001-  40 1.42  38 1.42  32 1.42
  40  0.839  0.734  0.001-  39 1.42  49 1.42  41 1.42
  41  0.972  0.800  0.001-  18 1.42  42 1.42  40 1.42
  42  0.039  0.934  0.001-   3 1.42  41 1.42   1 1.42
  43  0.172  0.800  0.001-  18 1.42  44 1.42  26 1.42
  44  0.239  0.934  0.001-   9 1.42  43 1.42   3 1.42
  45  0.372  0.800  0.001-  26 1.42  46 1.42  30 1.42
  46  0.439  0.934  0.001-  15 1.42  45 1.42   9 1.42
  47  0.572  0.800  0.001-  30 1.42  48 1.42  20 1.42
  48  0.639  0.934  0.001-  47 1.42  33 1.42  15 1.42
  49  0.772  0.800  0.001-  50 1.42  20 1.42  40 1.42
  50  0.839  0.934  0.001-  49 1.42   1 1.42  33 1.42
  51  0.373  0.251  0.125-  52 1.18  53 1.18
  52  0.421  0.189  0.128-  51 1.18
  53  0.325  0.313  0.122-  51 1.18
 
  LATTYP: Found a hexagonal cell.
 ALAT       =    12.3250000000
 C/A-ratio  =     1.6227180527
  
  Lattice vectors:
  
 A1 = (  12.3250000000,   0.0000000000,   0.0000000000)
 A2 = (  -6.1625000000,  10.6737631016,   0.0000000000)
 A3 = (   0.0000000000,   0.0000000000,  20.0000000000)


Analysis of symmetry for initial positions (statically):
=====================================================================
 Subroutine PRICEL returns:
 Original cell was already a primitive cell.
 

 Routine SETGRP: Setting up the symmetry group for a 
 hexagonal supercell.


 Subroutine GETGRP returns: Found  1 space group operations
 (whereof  1 operations were pure point group operations)
 out of a pool of 24 trial point group operations.


The static configuration has the point symmetry C_1 .


Analysis of symmetry for dynamics (positions and initial velocities):
=====================================================================
 Subroutine PRICEL returns:
 Original cell was already a primitive cell.
 

 Routine SETGRP: Setting up the symmetry group for a 
 hexagonal supercell.


 Subroutine GETGRP returns: Found  1 space group operations
 (whereof  1 operations were pure point group operations)
 out of a pool of 24 trial point group operations.


The dynamic configuration has the point symmetry C_1 .


 Subroutine INISYM returns: Found  1 space group operations
 (whereof  1 operations are pure point group operations),
 and found     1 'primitive' translations


----------------------------------------------------------------------------------------

                                     Primitive cell                                     

  volume of cell :    2631.0826

  direct lattice vectors                    reciprocal lattice vectors
    12.325000000  0.000000000  0.000000000     0.081135903  0.046843835  0.000000000
    -6.162500000 10.673763102  0.000000000     0.000000000  0.093687670  0.000000000
     0.000000000  0.000000000 20.000000000     0.000000000  0.000000000  0.050000000

  length of vectors
    12.325000000 12.325000000 20.000000000     0.093687670  0.093687670  0.050000000

  position of ions in fractional coordinates (direct lattice)
     0.972450841  0.000320818  0.000708389
     0.039118382  0.133659505  0.000550216
     0.172443627  0.000295449  0.000624535
     0.239096278  0.133647917  0.000320585
     0.972452058  0.200322012  0.000606523
     0.039128360  0.333643771  0.000555187
     0.172451764  0.200354552  0.000273959
     0.239124359  0.333665720  0.000090325
     0.372465565  0.000324403  0.000567391
     0.439137473  0.133619939  0.000322923
     0.972449824  0.400309362  0.000684513
     0.039124981  0.533636789  0.000716763
     0.372416176  0.400329481  0.000000000
     0.439099602  0.533638981  0.000290518
     0.572443676  0.000312125  0.000699475
     0.639110207  0.133631751  0.000684093
     0.972452703  0.600305653  0.000800361
     0.039124495  0.733640359  0.000818141
     0.572433471  0.600306242  0.000503618
     0.639111888  0.733641879  0.000659881
     0.172454630  0.400318228  0.000361306
     0.239120185  0.533636548  0.000473136
     0.372459750  0.200295993  0.000111246
     0.439107096  0.333673419  0.000069702
     0.172452155  0.600311506  0.000655425
     0.239123371  0.733638574  0.000718912
     0.572431082  0.200289171  0.000516621
     0.639112773  0.333618630  0.000577970
     0.372439808  0.600308022  0.000453556
     0.439116090  0.733637858  0.000617737
     0.572469358  0.400320504  0.000424897
     0.639119408  0.533650873  0.000574513
     0.772445723  0.000315427  0.000745201
     0.839116277  0.133640203  0.000719132
     0.772440513  0.200307432  0.000726291
     0.839120241  0.333635728  0.000731834
     0.772446320  0.400298367  0.000728722
     0.839118980  0.533633964  0.000776376
     0.772456143  0.600308173  0.000744639
     0.839115033  0.733643180  0.000789390
     0.972455313  0.800305582  0.000815291
     0.039114714  0.933643289  0.000747563
     0.172457971  0.800312211  0.000779216
     0.239134551  0.933647193  0.000681063
     0.372451396  0.800316674  0.000689249
     0.439124489  0.933644769  0.000676788
     0.572441101  0.800310054  0.000668168
     0.639115067  0.933638985  0.000734556
     0.772445098  0.800313187  0.000752577
     0.839116614  0.933644338  0.000758538
     0.373021009  0.251226878  0.125000000
     0.420879805  0.189313152  0.128221093
     0.325156981  0.313167186  0.122027256

  ion indices of the primitive-cell ions
   primitive index   ion index
                 1           1
                 2           2
                 3           3
                 4           4
                 5           5
                 6           6
                 7           7
                 8           8
                 9           9
                10          10
                11          11
                12          12
                13          13
                14          14
                15          15
                16          16
                17          17
                18          18
                19          19
                20          20
                21          21
                22          22
                23          23
                24          24
                25          25
                26          26
                27          27
                28          28
                29          29
                30          30
                31          31
                32          32
                33          33
                34          34
                35          35
                36          36
                37          37
                38          38
                39          39
                40          40
                41          41
                42          42
                43          43
                44          44
                45          45
                46          46
                47          47
                48          48
                49          49
                50          50
                51          51
                52          52
                53          53

----------------------------------------------------------------------------------------

 
 
 KPOINTS: auto                                    

Automatic generation of k-mesh.
 Grid dimensions read from file:
 generate k-points for:    1    1    1

 Generating k-lattice:

  Cartesian coordinates                     Fractional coordinates (reciprocal lattice)
     0.081135903  0.046843835  0.000000000     1.000000000 -0.000000000  0.000000000
     0.000000000  0.093687670  0.000000000     0.000000000  1.000000000  0.000000000
     0.000000000  0.000000000  0.050000000     0.000000000  0.000000000  1.000000000

  Length of vectors
     0.093687670  0.093687670  0.050000000

  Shift w.r.t. Gamma in fractional coordinates (k-lattice)
     0.000000000  0.000000000  0.000000000

 
 Subroutine IBZKPT returns following result:
 ===========================================
 
 Found      1 irreducible k-points:
 
 Following reciprocal coordinates:
            Coordinates               Weight
  0.000000  0.000000  0.000000      1.000000
 
 Following cartesian coordinates:
            Coordinates               Weight
  0.000000  0.000000  0.000000      1.000000
 


--------------------------------------------------------------------------------------------------------




 Dimension of arrays:
   k-points           NKPTS =      1   k-points in BZ     NKDIM =      1   number of bands    NBANDS=    136
   number of dos      NEDOS =    301   number of ions     NIONS =     53
   non local maximal  LDIM  =      4   non local SUM 2l+1 LMDIM =      8
   total plane-waves  NPLWV = ******
   max r-space proj   IRMAX =      1   max aug-charges    IRDMAX=   9736
   dimension x,y,z NGX =   128 NGY =  128 NGZ =  210
   dimension x,y,z NGXF=   256 NGYF=  256 NGZF=  420
   support grid    NGXF=   256 NGYF=  256 NGZF=  420
   ions per type =              51   2
   NGX,Y,Z   is equivalent  to a cutoff of  17.27, 17.27, 17.46 a.u.
   NGXF,Y,Z  is equivalent  to a cutoff of  34.53, 34.53, 34.91 a.u.

 SYSTEM =  unknown system                          
 POSCAR =   C  O                                   

 Startparameter for this run:
   NWRITE =      2    write-flag & timer
   PREC   = accura    normal or accurate (medium, high low for compatibility)
   ISTART =      0    job   : 0-new  1-cont  2-samecut
   ICHARG =      2    charge: 1-file 2-atom 10-const
   ISPIN  =      1    spin polarized calculation?
   LNONCOLLINEAR =      F non collinear calculations
   LSORBIT =      F    spin-orbit coupling
   INIWAV =      1    electr: 0-lowe 1-rand  2-diag
   LASPH  =      T    aspherical Exc in radial PAW
 Electronic Relaxation 1
   ENCUT  = 1000.0 eV  73.50 Ry    8.57 a.u.  31.78 31.78 51.57*2*pi/ulx,y,z
   ENINI  = 1000.0     initial cutoff
   ENAUG  =  946.8 eV  augmentation charge cutoff
   NELM   =     60;   NELMIN=  2; NELMDL=  0     # of ELM steps 
   EDIFF  = 0.1E-06   stopping-criterion for ELM
   LREAL  =      F    real-space projection
   NLSPLINE    = F    spline interpolate recip. space projectors
   LCOMPAT=      F    compatible to vasp.4.4
   GGA_COMPAT  = T    GGA compatible to vasp.4.4-vasp.4.6
   LMAXPAW     = -100 max onsite density
   LMAXMIX     =    2 max onsite mixed and CHGCAR
   VOSKOWN=      0    Vosko Wilk Nusair interpolation
   ROPT   =    0.00000   0.00000
 Ionic relaxation
   EDIFFG = 0.1E-05   stopping-criterion for IOM
   NSW    =      0    number of steps for IOM
   NBLOCK =      1;   KBLOCK =      1    inner block; outer block 
   IBRION =     -1    ionic relax: 0-MD 1-quasi-New 2-CG
   NFREE  =      0    steps in history (QN), initial steepest desc. (CG)
   ISIF   =      0    stress and relaxation
   IWAVPR =     10    prediction:  0-non 1-charg 2-wave 3-comb
   ISYM   =      2    0-nonsym 1-usesym 2-fastsym
   LCORR  =      T    Harris-Foulkes like correction to forces

   POTIM  = 0.5000    time-step for ionic-motion
   TEIN   =    0.0    initial temperature
   TEBEG  =    0.0;   TEEND  =   0.0 temperature during run
   SMASS  =  -3.00    Nose mass-parameter (am)
   estimated Nose-frequenzy (Omega)   =  0.10E-29 period in steps = 0.13E+47 mass=  -0.347E-26a.u.
   SCALEE = 1.0000    scale energy and forces
   NPACO  =    256;   APACO  = 16.0  distance and # of slots for P.C.
   PSTRESS=    0.0 pullay stress

  Mass of Ions in am
   POMASS =  12.01 16.00
  Ionic Valenz
   ZVAL   =   4.00  6.00
  Atomic Wigner-Seitz radii
   RWIGS  =  -1.00 -1.00
  virtual crystal weights 
   VCA    =   1.00  1.00
   NELECT =     216.0000    total number of electrons
   NUPDOWN=      -1.0000    fix difference up-down

 DOS related values:
   EMIN   =  10.00;   EMAX   =-10.00  energy-range for DOS
   EFERMI =   0.00
   ISMEAR =     0;   SIGMA  =   0.01  broadening in eV -4-tet -1-fermi 0-gaus

 Electronic relaxation 2 (details)
   IALGO  =     58    algorithm
   LDIAG  =      T    sub-space diagonalisation (order eigenvalues)
   LSUBROT=      F    optimize rotation matrix (better conditioning)
   TURBO    =      0    0=normal 1=particle mesh
   IRESTART =      0    0=no restart 2=restart with 2 vectors
   NREBOOT  =      0    no. of reboots
   NMIN     =      0    reboot dimension
   EREF     =   0.00    reference energy to select bands
   IMIX   =      4    mixing-type and parameters
     AMIX     =   0.40;   BMIX     =  1.00
     AMIX_MAG =   1.60;   BMIX_MAG =  1.00
     AMIN     =   0.10
     WC   =   100.;   INIMIX=   1;  MIXPRE=   1;  MAXMIX= -45

 Intra band minimization:
   WEIMIN = 0.0000     energy-eigenvalue tresh-hold
   EBREAK =  0.18E-09  absolut break condition
   DEPER  =   0.30     relativ break condition  

   TIME   =   0.40     timestep for ELM

  volume/ion in A,a.u.               =      49.64       335.01
  Fermi-wavevector in a.u.,A,eV,Ry     =   0.711510  1.344560  6.887909  0.506247
  Thomas-Fermi vector in A             =   1.798641
 
 Write flags
   LWAVE        =      T    write WAVECAR
   LDOWNSAMPLE  =      F    k-point downsampling of WAVECAR
   LCHARG       =      T    write CHGCAR
   LVTOT        =      F    write LOCPOT, total local potential
   LVHAR        =      F    write LOCPOT, Hartree potential only
   LELF         =      F    write electronic localiz. function (ELF)
   LORBIT       =      0    0 simple, 1 ext, 2 COOP (PROOUT), +10 PAW based schemes


 Dipole corrections
   LMONO  =      F    monopole corrections only (constant potential shift)
   LDIPOL =      F    correct potential (dipole corrections)
   IDIPOL =      0    1-x, 2-y, 3-z, 4-all directions 
   EPSILON=  1.0000000 bulk dielectric constant

 Exchange correlation treatment:
   GGA     =    MK    GGA type
   LEXCH   =    43    internal setting for exchange type
   VOSKOWN=      0    Vosko Wilk Nusair interpolation
   LHFCALC =     F    Hartree Fock is set to
   LHFONE  =     F    Hartree Fock one center treatment
   AEXX    =    0.0000 exact exchange contribution

 vdW DFT:
   LUSE_VDW   =     T    switch on vdW DFT
   Zab_VDW    =-.8491    correlation parameter
   PARAM1     =0.1234
   PARAM2     =1.0000
   PARAM3     =0.0000
   -- rVV10 --
   BPARAM     = 6.3000
   CPARAM     = 0.0093

 Linear response parameters
   LEPSILON=     F    determine dielectric tensor
   LRPA    =     F    only Hartree local field effects (RPA)
   LNABLA  =     F    use nabla operator in PAW spheres
   LVEL    =     F    velocity operator in full k-point grid
   LINTERFAST=   F  fast interpolation
   KINTER  =     0    interpolate to denser k-point grid
   CSHIFT  =0.1000    complex shift for real part using Kramers Kronig
   OMEGAMAX=  -1.0    maximum frequency
   DEG_THRESHOLD= 0.2000000E-02 threshold for treating states as degnerate
   RTIME   =   -0.100 relaxation time in fs
  (WPLASMAI=    0.000 imaginary part of plasma frequency in eV, 0.658/RTIME)
   DFIELD  = 0.0000000 0.0000000 0.0000000 field for delta impulse in time
 
 Orbital magnetization related:
   ORBITALMAG=     F  switch on orbital magnetization
   LCHIMAG   =     F  perturbation theory with respect to B field
   DQ        =  0.001000  dq finite difference perturbation B field
   LLRAUG    =     F  two centre corrections for induced B field



--------------------------------------------------------------------------------------------------------


 Static calculation
 charge density and potential will be updated during run
 non-spin polarized calculation
 Conjugate gradient for all bands (Freysoldt, et al. PRB 79, 241103 (2009))
 preconditioned conjugated gradient                                        
 perform sub-space diagonalisation
    before iterative eigenvector-optimisation
 modified Broyden-mixing scheme, WC =      100.0
 initial mixing is a Kerker type mixing with AMIX =  0.4000 and BMIX =      1.0000
 Hartree-type preconditioning will be used
 using additional bands           28
 reciprocal scheme for non local part
 use partial core corrections
 no Harris-corrections to forces 
 use gradient corrections 
 use of overlap-Matrix (Vanderbilt PP)
 Gauss-broadening in eV      SIGMA  =   0.01


--------------------------------------------------------------------------------------------------------


  energy-cutoff  :     1000.00
  volume of cell :     2631.08
      direct lattice vectors                 reciprocal lattice vectors
    12.325000000  0.000000000  0.000000000     0.081135903  0.046843835  0.000000000
    -6.162500000 10.673763102  0.000000000     0.000000000  0.093687670  0.000000000
     0.000000000  0.000000000 20.000000000     0.000000000  0.000000000  0.050000000

  length of vectors
    12.325000000 12.325000000 20.000000000     0.093687670  0.093687670  0.050000000


 
 k-points in units of 2pi/SCALE and weight: auto                                    
   0.00000000  0.00000000  0.00000000       1.000
 
 k-points in reciprocal lattice and weights: auto                                    
   0.00000000  0.00000000  0.00000000       1.000
 
 position of ions in fractional coordinates (direct lattice) 
   0.97245084  0.00032082  0.00070839
   0.03911838  0.13365950  0.00055022
   0.17244363  0.00029545  0.00062454
   0.23909628  0.13364792  0.00032058
   0.97245206  0.20032201  0.00060652
   0.03912836  0.33364377  0.00055519
   0.17245176  0.20035455  0.00027396
   0.23912436  0.33366572  0.00009033
   0.37246557  0.00032440  0.00056739
   0.43913747  0.13361994  0.00032292
   0.97244982  0.40030936  0.00068451
   0.03912498  0.53363679  0.00071676
   0.37241618  0.40032948  0.00000000
   0.43909960  0.53363898  0.00029052
   0.57244368  0.00031213  0.00069947
   0.63911021  0.13363175  0.00068409
   0.97245270  0.60030565  0.00080036
   0.03912449  0.73364036  0.00081814
   0.57243347  0.60030624  0.00050362
   0.63911189  0.73364188  0.00065988
   0.17245463  0.40031823  0.00036131
   0.23912018  0.53363655  0.00047314
   0.37245975  0.20029599  0.00011125
   0.43910710  0.33367342  0.00006970
   0.17245216  0.60031151  0.00065542
   0.23912337  0.73363857  0.00071891
   0.57243108  0.20028917  0.00051662
   0.63911277  0.33361863  0.00057797
   0.37243981  0.60030802  0.00045356
   0.43911609  0.73363786  0.00061774
   0.57246936  0.40032050  0.00042490
   0.63911941  0.53365087  0.00057451
   0.77244572  0.00031543  0.00074520
   0.83911628  0.13364020  0.00071913
   0.77244051  0.20030743  0.00072629
   0.83912024  0.33363573  0.00073183
   0.77244632  0.40029837  0.00072872
   0.83911898  0.53363396  0.00077638
   0.77245614  0.60030817  0.00074464
   0.83911503  0.73364318  0.00078939
   0.97245531  0.80030558  0.00081529
   0.03911471  0.93364329  0.00074756
   0.17245797  0.80031221  0.00077922
   0.23913455  0.93364719  0.00068106
   0.37245140  0.80031667  0.00068925
   0.43912449  0.93364477  0.00067679
   0.57244110  0.80031005  0.00066817
   0.63911507  0.93363899  0.00073456
   0.77244510  0.80031319  0.00075258
   0.83911661  0.93364434  0.00075854
   0.37302101  0.25122688  0.12500000
   0.42087980  0.18931315  0.12822109
   0.32515698  0.31316719  0.12202726
 
 position of ions in cartesian coordinates  (Angst):
  11.98347958  0.00342433  0.01416777
  -0.34154264  1.42664989  0.01100432
   2.12354700  0.00315355  0.01249070
   2.12325634  1.42652621  0.00641170
  10.75098721  2.13818970  0.01213047
  -1.57382270  3.56123457  0.01110375
   0.89078307  2.13853702  0.00547917
   0.89099273  3.56146885  0.00180651
   4.58863896  0.00346260  0.01134782
   4.58893648  1.42622757  0.00645846
   9.51853763  4.27280730  0.01369027
  -2.80632132  5.69591267  0.01433526
   2.12299894  4.27302204  0.00000000
   2.12335237  5.69593607  0.00581036
   7.05344483  0.00333155  0.01398950
   7.05352764  1.42635365  0.01368187
   8.28609598  6.40752033  0.01600723
  -4.03884931  7.83070339  0.01636283
   3.35585531  6.40752662  0.01007237
   3.35598594  7.83071962  0.01319763
  -0.34145776  4.27290193  0.00722612
  -0.34137895  5.69591010  0.00946273
   3.35624236  2.13791198  0.00222492
   3.35573251  3.56155103  0.00139405
  -1.57394684  6.40758280  0.01310850
  -1.57385216  7.83068434  0.01437823
   5.82093107  2.13783916  0.01033241
   5.82114012  3.56096622  0.01155939
   0.89092245  6.40754561  0.00907111
   0.89106251  7.83067670  0.01235474
   4.58870974  4.27292622  0.00849795
   4.58852320  5.69606300  0.01149026
   9.51844972  0.00336679  0.01490402
   9.51855036  1.42644387  0.01438264
   8.28593477  2.13803408  0.01452582
   8.28612680  3.56114872  0.01463668
   7.05356221  4.27268994  0.01457444
   7.05362213  5.69588251  0.01552751
   5.82112285  6.40754723  0.01489279
   5.82101669  7.83073350  0.01578780
   7.05362858  8.54227219  0.01630582
  -5.27148792  9.96548729  0.01495127
  -2.80637951  8.54234295  0.01558431
  -2.80626749  9.96552896  0.01362126
  -0.34148805  8.54239058  0.01378498
  -0.34137657  9.96550309  0.01353576
   2.12342586  8.54231992  0.01336337
   2.12354296  9.96544135  0.01469111
   4.58845581  8.54235337  0.01505154
   4.58852904  9.96549848  0.01517076
   3.04929830  2.68153618  2.50000000
   4.02070129  2.02068374  2.56442186
   2.07766701  3.34267235  2.44054513
 


--------------------------------------------------------------------------------------------------------


 k-point   1 :   0.0000 0.0000 0.0000  plane waves:  189031

 maximum and minimum number of plane-waves per node :      6755     6748

 maximum number of plane-waves:    189031
 maximum index in each direction: 
   IXMAX=   31   IYMAX=   31   IZMAX=   51
   IXMIN=  -31   IYMIN=  -31   IZMIN=  -51


 parallel 3D FFT for wavefunctions:
    minimum data exchange during FFTs selected (reduces bandwidth)
 parallel 3D FFT for charge:
    minimum data exchange during FFTs selected (reduces bandwidth)


 total amount of memory used by VASP MPI-rank0    85439. kBytes
=======================================================================

   base      :      30000. kBytes
   nonl-proj :       6586. kBytes
   fftplans  :      14299. kBytes
   grid      :      23511. kBytes
   one-center:          6. kBytes
   wavefun   :      11037. kBytes
 
     INWAV:  cpu time    0.0000: real time    0.0000
 Broyden mixing: mesh for mixing (old mesh)
   NGX = 63   NGY = 63   NGZ =103
  (NGX  =256   NGY  =256   NGZ  =420)
  gives a total of 408807 points

 initial charge density was supplied:
 charge density of overlapping atoms calculated
 number of electron     216.0000000 magnetization 
 charge density for first step will be calculated from the start-wavefunctions


--------------------------------------------------------------------------------------------------------


 Maximum index for augmentation-charges          459 (set IRDMAX)


--------------------------------------------------------------------------------------------------------


 First call to EWALD:  gamma=   0.128
 Maximum number of real-space cells 3x 3x 2
 Maximum number of reciprocal cells 3x 3x 4

    FEWALD:  cpu time    0.0026: real time    0.0026


--------------------------------------- Iteration      1(   1)  ---------------------------------------


vdW kernel read from vdw_kernel.bindat
  0.0000  0.2424  0.5071  0.7962  1.1119  1.4567  1.8333  2.2446  2.6937  3.1842
  3.7199  4.3049  4.9438  5.6415  6.4036  7.2358  8.1446  9.1372 10.2212 11.4050
 12.6979 14.1099 15.6519 17.3360 19.1751 21.1837 23.3773 25.7729 28.3892 31.2465
 34.3669 37.7748 41.4965 45.5611 50.0000
 
    POTLOK:  cpu time    3.3989: real time    3.4545
    SETDIJ:  cpu time    0.0560: real time    0.0581
    TRIAL :  cpu time    1.5238: real time    1.5726
    CORREC:  cpu time    0.0007: real time    0.0006
    --------------------------------------------
      LOOP:  cpu time    4.9815: real time    5.1114

 eigenvalue-minimisations  :   272
 total energy-change (2. order) : 0.2790342E+04  (-0.1099264E+05)
 number of electron     216.0000000 magnetization 
 augmentation part      216.0000000 magnetization 

 Free energy of the ion-electron system (eV)
  ---------------------------------------------------
  alpha Z        PSCENC =        59.93625244
  Ewald energy   TEWEN  =     35411.26856477
  -Hartree energ DENC   =    -41583.62027119
  -exchange      EXHF   =         0.00000000
  -V(xc)+E(xc)   XCENC  =       414.92821482
  PAW double counting   =      6552.85433684    -6257.21772958
  entropy T*S    EENTRO =        -0.00000000
  eigenvalues    EBANDS =      -222.84252630
  atomic energy  EATOM  =      8415.03548706
  ---------------------------------------------------
  free energy    TOTEN  =      2790.34232885 eV

  energy without entropy =     2790.34232885  energy(sigma->0) =     2790.34232885


--------------------------------------------------------------------------------------------------------




--------------------------------------- Iteration      1(   2)  ---------------------------------------


    TRIAL :  cpu time    2.1396: real time    2.1951
    CORREC:  cpu time    0.0001: real time    0.0001
    --------------------------------------------
      LOOP:  cpu time    2.1565: real time    2.2134

 eigenvalue-minimisations  :   440
 total energy-change (2. order) :-0.2422540E+04  (-0.2266813E+04)
 number of electron     216.0000000 magnetization 
 augmentation part      216.0000000 magnetization 

 Free energy of the ion-electron system (eV)
  ---------------------------------------------------
  alpha Z        PSCENC =        59.93625244
  Ewald energy   TEWEN  =     35411.26856477
  -Hartree energ DENC   =    -41583.62027119
  -exchange      EXHF   =         0.00000000
  -V(xc)+E(xc)   XCENC  =       414.92821482
  PAW double counting   =      6552.85433684    -6257.21772958
  entropy T*S    EENTRO =        -0.00000000
  eigenvalues    EBANDS =     -2645.38286116
  atomic energy  EATOM  =      8415.03548706
  ---------------------------------------------------
  free energy    TOTEN  =       367.80199400 eV

  energy without entropy =      367.80199400  energy(sigma->0) =      367.80199400


--------------------------------------------------------------------------------------------------------




--------------------------------------- Iteration      1(   3)  ---------------------------------------


    TRIAL :  cpu time    1.8460: real time    1.8630
    CORREC:  cpu time    0.0001: real time    0.0001
    --------------------------------------------
      LOOP:  cpu time    1.8740: real time    1.8939

 eigenvalue-minimisations  :   368
 total energy-change (2. order) :-0.7620619E+03  (-0.7570227E+03)
 number of electron     216.0000000 magnetization 
 augmentation part      216.0000000 magnetization 

 Free energy of the ion-electron system (eV)
  ---------------------------------------------------
  alpha Z        PSCENC =        59.93625244
  Ewald energy   TEWEN  =     35411.26856477
  -Hartree energ DENC   =    -41583.62027119
  -exchange      EXHF   =         0.00000000
  -V(xc)+E(xc)   XCENC  =       414.92821482
  PAW double counting   =      6552.85433684    -6257.21772958
  entropy T*S    EENTRO =        -0.00000000
  eigenvalues    EBANDS =     -3407.44479116
  atomic energy  EATOM  =      8415.03548706
  ---------------------------------------------------
  free energy    TOTEN  =      -394.25993601 eV

  energy without entropy =     -394.25993601  energy(sigma->0) =     -394.25993601


--------------------------------------------------------------------------------------------------------




--------------------------------------- Iteration      1(   4)  ---------------------------------------


    TRIAL :  cpu time    1.6940: real time    1.7100
    CORREC:  cpu time    0.0001: real time    0.0001
    --------------------------------------------
      LOOP:  cpu time    1.7047: real time    1.7262

 eigenvalue-minimisations  :   328
 total energy-change (2. order) :-0.5353747E+02  (-0.5298890E+02)
 number of electron     216.0000000 magnetization 
 augmentation part      216.0000000 magnetization 

 Free energy of the ion-electron system (eV)
  ---------------------------------------------------
  alpha Z        PSCENC =        59.93625244
  Ewald energy   TEWEN  =     35411.26856477
  -Hartree energ DENC   =    -41583.62027119
  -exchange      EXHF   =         0.00000000
  -V(xc)+E(xc)   XCENC  =       414.92821482
  PAW double counting   =      6552.85433684    -6257.21772958
  entropy T*S    EENTRO =        -0.00000000
  eigenvalues    EBANDS =     -3460.98226048
  atomic energy  EATOM  =      8415.03548706
  ---------------------------------------------------
  free energy    TOTEN  =      -447.79740532 eV

  energy without entropy =     -447.79740532  energy(sigma->0) =     -447.79740532


--------------------------------------------------------------------------------------------------------




--------------------------------------- Iteration      1(   5)  ---------------------------------------


    TRIAL :  cpu time    1.9633: real time    1.9846
    CORREC:  cpu time    0.0001: real time    0.0001
    CHARGE:  cpu time    0.1180: real time    0.1206
    --------------------------------------------
      LOOP:  cpu time    2.0965: real time    2.1470

 eigenvalue-minimisations  :   400
 total energy-change (2. order) :-0.1661531E+01  (-0.1656841E+01)
 number of electron     216.0000000 magnetization 
 augmentation part       -0.2464615 magnetization 

 Free energy of the ion-electron system (eV)
  ---------------------------------------------------
  alpha Z        PSCENC =        59.93625244
  Ewald energy   TEWEN  =     35411.26856477
  -Hartree energ DENC   =    -41583.62027119
  -exchange      EXHF   =         0.00000000
  -V(xc)+E(xc)   XCENC  =       414.92821482
  PAW double counting   =      6552.85433684    -6257.21772958
  entropy T*S    EENTRO =        -0.00000000
  eigenvalues    EBANDS =     -3462.64379128
  atomic energy  EATOM  =      8415.03548706
  ---------------------------------------------------
  free energy    TOTEN  =      -449.45893613 eV

  energy without entropy =     -449.45893613  energy(sigma->0) =     -449.45893613


--------------------------------------------------------------------------------------------------------




--------------------------------------- Iteration      1(   6)  ---------------------------------------


    POTLOK:  cpu time    3.0608: real time    3.0873
    SETDIJ:  cpu time    0.0544: real time    0.0546
    TRIAL :  cpu time    0.8583: real time    0.8669
    CORREC:  cpu time    3.4239: real time    3.4524
    CHARGE:  cpu time    0.1164: real time    0.1176
    --------------------------------------------
      LOOP:  cpu time    7.5697: real time    7.6368

 eigenvalue-minimisations  :     0
 total energy-change (2. order) : 0.5069211E+02  (-0.1594041E+02)
 number of electron     216.0000000 magnetization 
 augmentation part       -0.3418798 magnetization 

 Free energy of the ion-electron system (eV)
  ---------------------------------------------------
  alpha Z        PSCENC =        59.93625244
  Ewald energy   TEWEN  =     35411.26856477
  -Hartree energ DENC   =    -42994.89505352
  -exchange      EXHF   =         0.00000000
  -V(xc)+E(xc)   XCENC  =       461.85053098
  PAW double counting   =     85915.07153080   -85624.41961768
  entropy T*S    EENTRO =        -0.00000000
  eigenvalues    EBANDS =     -2042.61451864
  atomic energy  EATOM  =      8415.03548706
  ---------------------------------------------------
  free energy    TOTEN  =      -398.76682378 eV

  energy without entropy =     -398.76682378  energy(sigma->0) =     -398.76682378


--------------------------------------------------------------------------------------------------------




--------------------------------------- Iteration      1(   7)  ---------------------------------------


    POTLOK:  cpu time    3.0682: real time    3.0963
    SETDIJ:  cpu time    0.0638: real time    0.0640
    TRIAL :  cpu time    0.8576: real time    0.8659
    CORREC:  cpu time    3.4220: real time    3.4495
    CHARGE:  cpu time    0.1156: real time    0.1168
    --------------------------------------------
      LOOP:  cpu time    7.5314: real time    7.6237

 eigenvalue-minimisations  :     0
 total energy-change (2. order) :-0.1597253E+02  (-0.1696212E+01)
 number of electron     216.0000000 magnetization 
 augmentation part       -0.3872442 magnetization 

 Free energy of the ion-electron system (eV)
  ---------------------------------------------------
  alpha Z        PSCENC =        59.93625244
  Ewald energy   TEWEN  =     35411.26856477
  -Hartree energ DENC   =    -42472.06022440
  -exchange      EXHF   =         0.00000000
  -V(xc)+E(xc)   XCENC  =       444.96994314
  PAW double counting   =    101396.16379060  -101103.09667531
  entropy T*S    EENTRO =        -0.00000000
  eigenvalues    EBANDS =     -2566.95649597
  atomic energy  EATOM  =      8415.03548706
  ---------------------------------------------------
  free energy    TOTEN  =      -414.73935767 eV

  energy without entropy =     -414.73935767  energy(sigma->0) =     -414.73935767


--------------------------------------------------------------------------------------------------------




--------------------------------------- Iteration      1(   8)  ---------------------------------------


    POTLOK:  cpu time    3.0763: real time    3.1011
    SETDIJ:  cpu time    0.0628: real time    0.0631
    TRIAL :  cpu time    0.8571: real time    0.8660
    CORREC:  cpu time    3.4194: real time    3.4514
    CHARGE:  cpu time    0.1147: real time    0.1172
    --------------------------------------------
      LOOP:  cpu time    7.5892: real time    7.6622

 eigenvalue-minimisations  :     0
 total energy-change (2. order) :-0.1696471E+01  (-0.4411703E+00)
 number of electron     216.0000000 magnetization 
 augmentation part       -0.4038268 magnetization 

 Free energy of the ion-electron system (eV)
  ---------------------------------------------------
  alpha Z        PSCENC =        59.93625244
  Ewald energy   TEWEN  =     35411.26856477
  -Hartree energ DENC   =    -42458.21676317
  -exchange      EXHF   =         0.00000000
  -V(xc)+E(xc)   XCENC  =       444.56682333
  PAW double counting   =    105306.70823422  -105013.37912544
  entropy T*S    EENTRO =        -0.00000000
  eigenvalues    EBANDS =     -2582.35530139
  atomic energy  EATOM  =      8415.03548706
  ---------------------------------------------------
  free energy    TOTEN  =      -416.43582817 eV

  energy without entropy =     -416.43582817  energy(sigma->0) =     -416.43582817


--------------------------------------------------------------------------------------------------------




--------------------------------------- Iteration      1(   9)  ---------------------------------------


    POTLOK:  cpu time    3.0686: real time    3.0930
    SETDIJ:  cpu time    0.0648: real time    0.0650
    TRIAL :  cpu time    0.8564: real time    0.8651
    CORREC:  cpu time    3.4174: real time    3.4453
    CHARGE:  cpu time    0.1157: real time    0.1169
    --------------------------------------------
      LOOP:  cpu time    7.5419: real time    7.6177

 eigenvalue-minimisations  :     0
 total energy-change (2. order) :-0.4409227E+00  (-0.1483961E+00)
 number of electron     216.0000000 magnetization 
 augmentation part       -0.4116894 magnetization 

 Free energy of the ion-electron system (eV)
  ---------------------------------------------------
  alpha Z        PSCENC =        59.93625244
  Ewald energy   TEWEN  =     35411.26856477
  -Hartree energ DENC   =    -42470.77353350
  -exchange      EXHF   =         0.00000000
  -V(xc)+E(xc)   XCENC  =       444.71259895
  PAW double counting   =    107763.36016747  -107469.92013000
  entropy T*S    EENTRO =        -0.00000000
  eigenvalues    EBANDS =     -2570.49615803
  atomic energy  EATOM  =      8415.03548706
  ---------------------------------------------------
  free energy    TOTEN  =      -416.87675084 eV

  energy without entropy =     -416.87675084  energy(sigma->0) =     -416.87675084


--------------------------------------------------------------------------------------------------------




--------------------------------------- Iteration      1(  10)  ---------------------------------------


    POTLOK:  cpu time    3.0608: real time    3.0869
    SETDIJ:  cpu time    0.0646: real time    0.0653
    TRIAL :  cpu time    0.8745: real time    0.8831
    CORREC:  cpu time    3.4256: real time    3.4537
    CHARGE:  cpu time    0.1163: real time    0.1175
    --------------------------------------------
      LOOP:  cpu time    7.5704: real time    7.6364

 eigenvalue-minimisations  :     0
 total energy-change (2. order) :-0.1481071E+00  (-0.6336027E-01)
 number of electron     216.0000000 magnetization 
 augmentation part       -0.4133587 magnetization 

 Free energy of the ion-electron system (eV)
  ---------------------------------------------------
  alpha Z        PSCENC =        59.93625244
  Ewald energy   TEWEN  =     35411.26856477
  -Hartree energ DENC   =    -42468.71019904
  -exchange      EXHF   =         0.00000000
  -V(xc)+E(xc)   XCENC  =       444.62492997
  PAW double counting   =    108205.44800758  -107911.94472087
  entropy T*S    EENTRO =        -0.00000000
  eigenvalues    EBANDS =     -2572.68317979
  atomic energy  EATOM  =      8415.03548706
  ---------------------------------------------------
  free energy    TOTEN  =      -417.02485789 eV

  energy without entropy =     -417.02485789  energy(sigma->0) =     -417.02485789


--------------------------------------------------------------------------------------------------------




--------------------------------------- Iteration      1(  11)  ---------------------------------------


    POTLOK:  cpu time    3.0845: real time    3.1104
    SETDIJ:  cpu time    0.0645: real time    0.0647
    TRIAL :  cpu time    0.8574: real time    0.8658
    CORREC:  cpu time    3.4184: real time    3.4455
    CHARGE:  cpu time    0.1158: real time    0.1170
    --------------------------------------------
      LOOP:  cpu time    7.5435: real time    7.6334

 eigenvalue-minimisations  :     0
 total energy-change (2. order) :-0.6306251E-01  (-0.2630198E-01)
 number of electron     216.0000000 magnetization 
 augmentation part       -0.4136492 magnetization 

 Free energy of the ion-electron system (eV)
  ---------------------------------------------------
  alpha Z        PSCENC =        59.93625244
  Ewald energy   TEWEN  =     35411.26856477
  -Hartree energ DENC   =    -42464.43424051
  -exchange      EXHF   =         0.00000000
  -V(xc)+E(xc)   XCENC  =       444.57005290
  PAW double counting   =    107838.56615651  -107545.06710318
  entropy T*S    EENTRO =        -0.00000000
  eigenvalues    EBANDS =     -2576.96309039
  atomic energy  EATOM  =      8415.03548706
  ---------------------------------------------------
  free energy    TOTEN  =      -417.08792040 eV

  energy without entropy =     -417.08792040  energy(sigma->0) =     -417.08792040


--------------------------------------------------------------------------------------------------------




--------------------------------------- Iteration      1(  12)  ---------------------------------------


    POTLOK:  cpu time    3.1091: real time    3.1321
    SETDIJ:  cpu time    0.0631: real time    0.0633
    TRIAL :  cpu time    0.8569: real time    0.8654
    CORREC:  cpu time    3.4232: real time    3.4506
    CHARGE:  cpu time    0.1158: real time    0.1179
    --------------------------------------------
      LOOP:  cpu time    7.5841: real time    7.6494

 eigenvalue-minimisations  :     0
 total energy-change (2. order) :-0.2616449E-01  (-0.9019610E-02)
 number of electron     216.0000000 magnetization 
 augmentation part       -0.4138020 magnetization 

 Free energy of the ion-electron system (eV)
  ---------------------------------------------------
  alpha Z        PSCENC =        59.93625244
  Ewald energy   TEWEN  =     35411.26856477
  -Hartree energ DENC   =    -42462.18739486
  -exchange      EXHF   =         0.00000000
  -V(xc)+E(xc)   XCENC  =       444.52846305
  PAW double counting   =    107543.33171578  -107249.84876588
  entropy T*S    EENTRO =        -0.00000000
  eigenvalues    EBANDS =     -2579.17840725
  atomic energy  EATOM  =      8415.03548706
  ---------------------------------------------------
  free energy    TOTEN  =      -417.11408489 eV

  energy without entropy =     -417.11408489  energy(sigma->0) =     -417.11408489


--------------------------------------------------------------------------------------------------------




--------------------------------------- Iteration      1(  13)  ---------------------------------------


    POTLOK:  cpu time    3.0742: real time    3.0999
    SETDIJ:  cpu time    0.0655: real time    0.0657
    TRIAL :  cpu time    0.8590: real time    0.8676
    CORREC:  cpu time    3.4145: real time    3.4451
    CHARGE:  cpu time    0.1147: real time    0.1170
    --------------------------------------------
      LOOP:  cpu time    7.5310: real time    7.6433

 eigenvalue-minimisations  :     0
 total energy-change (2. order) :-0.9001647E-02  (-0.2869376E-02)
 number of electron     216.0000000 magnetization 
 augmentation part       -0.4133517 magnetization 

 Free energy of the ion-electron system (eV)
  ---------------------------------------------------
  alpha Z        PSCENC =        59.93625244
  Ewald energy   TEWEN  =     35411.26856477
  -Hartree energ DENC   =    -42461.65051831
  -exchange      EXHF   =         0.00000000
  -V(xc)+E(xc)   XCENC  =       444.51413632
  PAW double counting   =    107447.38861387  -107153.91338879
  entropy T*S    EENTRO =        -0.00000000
  eigenvalues    EBANDS =     -2579.70223390
  atomic energy  EATOM  =      8415.03548706
  ---------------------------------------------------
  free energy    TOTEN  =      -417.12308654 eV

  energy without entropy =     -417.12308654  energy(sigma->0) =     -417.12308654


--------------------------------------------------------------------------------------------------------




--------------------------------------- Iteration      1(  14)  ---------------------------------------


    POTLOK:  cpu time    3.0715: real time    3.0975
    SETDIJ:  cpu time    0.0634: real time    0.0637
    TRIAL :  cpu time    0.8655: real time    0.8845
    CORREC:  cpu time    3.4064: real time    3.4451
    CHARGE:  cpu time    0.1161: real time    0.1172
    --------------------------------------------
      LOOP:  cpu time    7.5596: real time    7.6470

 eigenvalue-minimisations  :     0
 total energy-change (2. order) :-0.2869682E-02  (-0.1067317E-02)
 number of electron     216.0000000 magnetization 
 augmentation part       -0.4130383 magnetization 

 Free energy of the ion-electron system (eV)
  ---------------------------------------------------
  alpha Z        PSCENC =        59.93625244
  Ewald energy   TEWEN  =     35411.26856477
  -Hartree energ DENC   =    -42461.60133311
  -exchange      EXHF   =         0.00000000
  -V(xc)+E(xc)   XCENC  =       444.51291926
  PAW double counting   =    107462.03905197  -107168.56770474
  entropy T*S    EENTRO =        -0.00000000
  eigenvalues    EBANDS =     -2579.74919388
  atomic energy  EATOM  =      8415.03548706
  ---------------------------------------------------
  free energy    TOTEN  =      -417.12595622 eV

  energy without entropy =     -417.12595622  energy(sigma->0) =     -417.12595622


--------------------------------------------------------------------------------------------------------




--------------------------------------- Iteration      1(  15)  ---------------------------------------


    POTLOK:  cpu time    3.0908: real time    3.1145
    SETDIJ:  cpu time    0.0642: real time    0.0644
    TRIAL :  cpu time    0.8605: real time    0.8687
    CORREC:  cpu time    3.5687: real time    3.5953
    CHARGE:  cpu time    0.1264: real time    0.1275
    --------------------------------------------
      LOOP:  cpu time    7.7200: real time    7.8173

 eigenvalue-minimisations  :     0
 total energy-change (2. order) :-0.1069726E-02  (-0.5538221E-03)
 number of electron     216.0000000 magnetization 
 augmentation part       -0.4126034 magnetization 

 Free energy of the ion-electron system (eV)
  ---------------------------------------------------
  alpha Z        PSCENC =        59.93625244
  Ewald energy   TEWEN  =     35411.26856477
  -Hartree energ DENC   =    -42461.17880057
  -exchange      EXHF   =         0.00000000
  -V(xc)+E(xc)   XCENC  =       444.49783719
  PAW double counting   =    107476.19536576  -107182.72284408
  entropy T*S    EENTRO =        -0.00000000
  eigenvalues    EBANDS =     -2580.15888852
  atomic energy  EATOM  =      8415.03548706
  ---------------------------------------------------
  free energy    TOTEN  =      -417.12702594 eV

  energy without entropy =     -417.12702594  energy(sigma->0) =     -417.12702594


--------------------------------------------------------------------------------------------------------




--------------------------------------- Iteration      1(  16)  ---------------------------------------


    POTLOK:  cpu time    3.0707: real time    3.0962
    SETDIJ:  cpu time    0.0649: real time    0.0653
    TRIAL :  cpu time    0.8512: real time    0.8704
    CORREC:  cpu time    3.4033: real time    3.4356
    CHARGE:  cpu time    0.1164: real time    0.1176
    --------------------------------------------
      LOOP:  cpu time    7.5518: real time    7.6346

 eigenvalue-minimisations  :     0
 total energy-change (2. order) :-0.5551665E-03  (-0.2812454E-03)
 number of electron     216.0000000 magnetization 
 augmentation part       -0.4124199 magnetization 

 Free energy of the ion-electron system (eV)
  ---------------------------------------------------
  alpha Z        PSCENC =        59.93625244
  Ewald energy   TEWEN  =     35411.26856477
  -Hartree energ DENC   =    -42461.43898159
  -exchange      EXHF   =         0.00000000
  -V(xc)+E(xc)   XCENC  =       444.50651271
  PAW double counting   =    107441.73276912  -107148.26135218
  entropy T*S    EENTRO =        -0.00000000
  eigenvalues    EBANDS =     -2579.90683345
  atomic energy  EATOM  =      8415.03548706
  ---------------------------------------------------
  free energy    TOTEN  =      -417.12758111 eV

  energy without entropy =     -417.12758111  energy(sigma->0) =     -417.12758111


--------------------------------------------------------------------------------------------------------




--------------------------------------- Iteration      1(  17)  ---------------------------------------


    POTLOK:  cpu time    3.0941: real time    3.1179
    SETDIJ:  cpu time    0.0654: real time    0.0656
    TRIAL :  cpu time    0.9366: real time    0.9455
    CORREC:  cpu time    3.4227: real time    3.4504
    CHARGE:  cpu time    0.1163: real time    0.1175
    --------------------------------------------
      LOOP:  cpu time    7.6529: real time    7.7262

 eigenvalue-minimisations  :     0
 total energy-change (2. order) :-0.2810232E-03  (-0.1171695E-03)
 number of electron     216.0000000 magnetization 
 augmentation part       -0.4125097 magnetization 

 Free energy of the ion-electron system (eV)
  ---------------------------------------------------
  alpha Z        PSCENC =        59.93625244
  Ewald energy   TEWEN  =     35411.26856477
  -Hartree energ DENC   =    -42461.59320974
  -exchange      EXHF   =         0.00000000
  -V(xc)+E(xc)   XCENC  =       444.51088370
  PAW double counting   =    107403.73590158  -107110.26432023
  entropy T*S    EENTRO =        -0.00000000
  eigenvalues    EBANDS =     -2579.75742172
  atomic energy  EATOM  =      8415.03548706
  ---------------------------------------------------
  free energy    TOTEN  =      -417.12786213 eV

  energy without entropy =     -417.12786213  energy(sigma->0) =     -417.12786213


--------------------------------------------------------------------------------------------------------




--------------------------------------- Iteration      1(  18)  ---------------------------------------


    POTLOK:  cpu time    3.0890: real time    3.1126
    SETDIJ:  cpu time    0.0643: real time    0.0645
    TRIAL :  cpu time    0.8557: real time    0.8644
    CORREC:  cpu time    3.4155: real time    3.4422
    CHARGE:  cpu time    0.1155: real time    0.1166
    --------------------------------------------
      LOOP:  cpu time    7.5713: real time    7.6335

 eigenvalue-minimisations  :     0
 total energy-change (2. order) :-0.1167926E-03  (-0.4074146E-04)
 number of electron     216.0000000 magnetization 
 augmentation part       -0.4126208 magnetization 

 Free energy of the ion-electron system (eV)
  ---------------------------------------------------
  alpha Z        PSCENC =        59.93625244
  Ewald energy   TEWEN  =     35411.26856477
  -Hartree energ DENC   =    -42461.54650906
  -exchange      EXHF   =         0.00000000
  -V(xc)+E(xc)   XCENC  =       444.50977985
  PAW double counting   =    107399.27774047  -107105.80523111
  entropy T*S    EENTRO =        -0.00000000
  eigenvalues    EBANDS =     -2579.80406334
  atomic energy  EATOM  =      8415.03548706
  ---------------------------------------------------
  free energy    TOTEN  =      -417.12797893 eV

  energy without entropy =     -417.12797893  energy(sigma->0) =     -417.12797893


--------------------------------------------------------------------------------------------------------




--------------------------------------- Iteration      1(  19)  ---------------------------------------


    POTLOK:  cpu time    3.0641: real time    3.0899
    SETDIJ:  cpu time    0.0638: real time    0.0640
    TRIAL :  cpu time    0.8579: real time    0.8669
    CORREC:  cpu time    3.4286: real time    3.4565
    CHARGE:  cpu time    0.1159: real time    0.1171
    --------------------------------------------
      LOOP:  cpu time    7.5480: real time    7.6397

 eigenvalue-minimisations  :     0
 total energy-change (2. order) :-0.4036391E-04  (-0.1476215E-04)
 number of electron     216.0000000 magnetization 
 augmentation part       -0.4127088 magnetization 

 Free energy of the ion-electron system (eV)
  ---------------------------------------------------
  alpha Z        PSCENC =        59.93625244
  Ewald energy   TEWEN  =     35411.26856477
  -Hartree energ DENC   =    -42461.59545728
  -exchange      EXHF   =         0.00000000
  -V(xc)+E(xc)   XCENC  =       444.51170576
  PAW double counting   =    107412.11304992  -107118.64044828
  entropy T*S    EENTRO =        -0.00000000
  eigenvalues    EBANDS =     -2579.75717369
  atomic energy  EATOM  =      8415.03548706
  ---------------------------------------------------
  free energy    TOTEN  =      -417.12801929 eV

  energy without entropy =     -417.12801929  energy(sigma->0) =     -417.12801929


--------------------------------------------------------------------------------------------------------




--------------------------------------- Iteration      1(  20)  ---------------------------------------


    POTLOK:  cpu time    3.0770: real time    3.1034
    SETDIJ:  cpu time    0.0629: real time    0.0631
    TRIAL :  cpu time    0.8562: real time    0.8661
    CORREC:  cpu time    3.4137: real time    3.4450
    CHARGE:  cpu time    0.1159: real time    0.1172
    --------------------------------------------
      LOOP:  cpu time    7.5931: real time    7.7184

 eigenvalue-minimisations  :     0
 total energy-change (2. order) :-0.1456158E-04  (-0.5751231E-05)
 number of electron     216.0000000 magnetization 
 augmentation part       -0.4127098 magnetization 

 Free energy of the ion-electron system (eV)
  ---------------------------------------------------
  alpha Z        PSCENC =        59.93625244
  Ewald energy   TEWEN  =     35411.26856477
  -Hartree energ DENC   =    -42461.56726464
  -exchange      EXHF   =         0.00000000
  -V(xc)+E(xc)   XCENC  =       444.51054956
  PAW double counting   =    107421.78363524  -107128.31078215
  entropy T*S    EENTRO =        -0.00000000
  eigenvalues    EBANDS =     -2579.78447612
  atomic energy  EATOM  =      8415.03548706
  ---------------------------------------------------
  free energy    TOTEN  =      -417.12803385 eV

  energy without entropy =     -417.12803385  energy(sigma->0) =     -417.12803385


--------------------------------------------------------------------------------------------------------




--------------------------------------- Iteration      1(  21)  ---------------------------------------


    POTLOK:  cpu time    3.0638: real time    3.0880
    SETDIJ:  cpu time    0.0650: real time    0.0652
    TRIAL :  cpu time    0.8563: real time    0.8651
    CORREC:  cpu time    3.4164: real time    3.4445
    CHARGE:  cpu time    0.1159: real time    0.1172
    --------------------------------------------
      LOOP:  cpu time    7.5500: real time    7.6521

 eigenvalue-minimisations  :     0
 total energy-change (2. order) :-0.5654205E-05  (-0.2666152E-05)
 number of electron     216.0000000 magnetization 
 augmentation part       -0.4127061 magnetization 

 Free energy of the ion-electron system (eV)
  ---------------------------------------------------
  alpha Z        PSCENC =        59.93625244
  Ewald energy   TEWEN  =     35411.26856477
  -Hartree energ DENC   =    -42461.58212687
  -exchange      EXHF   =         0.00000000
  -V(xc)+E(xc)   XCENC  =       444.51110022
  PAW double counting   =    107423.84466418  -107130.37207577
  entropy T*S    EENTRO =        -0.00000000
  eigenvalues    EBANDS =     -2579.76990553
  atomic energy  EATOM  =      8415.03548706
  ---------------------------------------------------
  free energy    TOTEN  =      -417.12803951 eV

  energy without entropy =     -417.12803951  energy(sigma->0) =     -417.12803951


--------------------------------------------------------------------------------------------------------




--------------------------------------- Iteration      1(  22)  ---------------------------------------


    POTLOK:  cpu time    3.0827: real time    3.1064
    SETDIJ:  cpu time    0.0650: real time    0.0652
    TRIAL :  cpu time    0.8583: real time    0.8667
    CORREC:  cpu time    3.4228: real time    3.4500
    CHARGE:  cpu time    0.1158: real time    0.1170
    --------------------------------------------
      LOOP:  cpu time    7.5800: real time    7.6444

 eigenvalue-minimisations  :     0
 total energy-change (2. order) :-0.2650995E-05  (-0.1093021E-05)
 number of electron     216.0000000 magnetization 
 augmentation part       -0.4126945 magnetization 

 Free energy of the ion-electron system (eV)
  ---------------------------------------------------
  alpha Z        PSCENC =        59.93625244
  Ewald energy   TEWEN  =     35411.26856477
  -Hartree energ DENC   =    -42461.56630889
  -exchange      EXHF   =         0.00000000
  -V(xc)+E(xc)   XCENC  =       444.51055383
  PAW double counting   =    107422.26820969  -107128.79566919
  entropy T*S    EENTRO =        -0.00000000
  eigenvalues    EBANDS =     -2579.78513187
  atomic energy  EATOM  =      8415.03548706
  ---------------------------------------------------
  free energy    TOTEN  =      -417.12804216 eV

  energy without entropy =     -417.12804216  energy(sigma->0) =     -417.12804216


--------------------------------------------------------------------------------------------------------




--------------------------------------- Iteration      1(  23)  ---------------------------------------


    POTLOK:  cpu time    3.0756: real time    3.0999
    SETDIJ:  cpu time    0.0655: real time    0.0657
    TRIAL :  cpu time    0.8564: real time    0.8652
    CORREC:  cpu time    3.4402: real time    3.4704
    CHARGE:  cpu time    0.1204: real time    0.1225
    --------------------------------------------
      LOOP:  cpu time    7.5875: real time    7.6543

 eigenvalue-minimisations  :     0
 total energy-change (2. order) :-0.1105189E-05  (-0.4284051E-06)
 number of electron     216.0000000 magnetization 
 augmentation part       -0.4126875 magnetization 

 Free energy of the ion-electron system (eV)
  ---------------------------------------------------
  alpha Z        PSCENC =        59.93625244
  Ewald energy   TEWEN  =     35411.26856477
  -Hartree energ DENC   =    -42461.56359990
  -exchange      EXHF   =         0.00000000
  -V(xc)+E(xc)   XCENC  =       444.51052969
  PAW double counting   =    107420.73419282  -107127.26170250
  entropy T*S    EENTRO =        -0.00000000
  eigenvalues    EBANDS =     -2579.78776764
  atomic energy  EATOM  =      8415.03548706
  ---------------------------------------------------
  free energy    TOTEN  =      -417.12804326 eV

  energy without entropy =     -417.12804326  energy(sigma->0) =     -417.12804326


--------------------------------------------------------------------------------------------------------




--------------------------------------- Iteration      1(  24)  ---------------------------------------


    POTLOK:  cpu time    3.0726: real time    3.0969
    SETDIJ:  cpu time    0.0652: real time    0.0655
    TRIAL :  cpu time    0.8612: real time    0.8716
    CORREC:  cpu time    3.4022: real time    3.4388
    CHARGE:  cpu time    0.1162: real time    0.1174
    --------------------------------------------
      LOOP:  cpu time    7.5304: real time    7.6185

 eigenvalue-minimisations  :     0
 total energy-change (2. order) :-0.4414178E-06  (-0.1684832E-06)
 number of electron     216.0000000 magnetization 
 augmentation part       -0.4126879 magnetization 

 Free energy of the ion-electron system (eV)
  ---------------------------------------------------
  alpha Z        PSCENC =        59.93625244
  Ewald energy   TEWEN  =     35411.26856477
  -Hartree energ DENC   =    -42461.56262834
  -exchange      EXHF   =         0.00000000
  -V(xc)+E(xc)   XCENC  =       444.51060390
  PAW double counting   =    107420.25199845  -107126.77951833
  entropy T*S    EENTRO =        -0.00000000
  eigenvalues    EBANDS =     -2579.78880365
  atomic energy  EATOM  =      8415.03548706
  ---------------------------------------------------
  free energy    TOTEN  =      -417.12804370 eV

  energy without entropy =     -417.12804370  energy(sigma->0) =     -417.12804370


--------------------------------------------------------------------------------------------------------




--------------------------------------- Iteration      1(  25)  ---------------------------------------


    POTLOK:  cpu time    3.0707: real time    3.0954
    SETDIJ:  cpu time    0.0651: real time    0.0653
    TRIAL :  cpu time    0.8570: real time    0.8659
    CORREC:  cpu time    3.4078: real time    3.4455
    CHARGE:  cpu time    0.1154: real time    0.1167
    --------------------------------------------
      LOOP:  cpu time    7.5341: real time    7.6176

 eigenvalue-minimisations  :     0
 total energy-change (2. order) :-0.1732988E-06  (-0.8049108E-07)
 number of electron     216.0000000 magnetization 
 augmentation part       -0.4126870 magnetization 

 Free energy of the ion-electron system (eV)
  ---------------------------------------------------
  alpha Z        PSCENC =        59.93625244
  Ewald energy   TEWEN  =     35411.26856477
  -Hartree energ DENC   =    -42461.55929883
  -exchange      EXHF   =         0.00000000
  -V(xc)+E(xc)   XCENC  =       444.51050005
  PAW double counting   =    107420.28969307  -107126.81717422
  entropy T*S    EENTRO =        -0.00000000
  eigenvalues    EBANDS =     -2579.79206822
  atomic energy  EATOM  =      8415.03548706
  ---------------------------------------------------
  free energy    TOTEN  =      -417.12804388 eV

  energy without entropy =     -417.12804388  energy(sigma->0) =     -417.12804388


--------------------------------------------------------------------------------------------------------




--------------------------------------- Iteration      1(  26)  ---------------------------------------


    POTLOK:  cpu time    3.0887: real time    3.1125
    SETDIJ:  cpu time    0.0629: real time    0.0633
    TRIAL :  cpu time    0.8473: real time    0.8665
    CORREC:  cpu time    3.4282: real time    3.4567
    EDDIAG:  cpu time    0.3243: real time    0.3284
    CHARGE:  cpu time    0.1164: real time    0.1176
    --------------------------------------------
      LOOP:  cpu time    7.8962: real time    7.9742

 eigenvalue-minimisations  :     0
 total energy-change (2. order) :-0.8357165E-07  (-0.3453036E-07)
 number of electron     216.0000000 magnetization 
 augmentation part       -0.4126864 magnetization 

 Free energy of the ion-electron system (eV)
  ---------------------------------------------------
  alpha Z        PSCENC =        59.93625244
  Ewald energy   TEWEN  =     35411.26856477
  -Hartree energ DENC   =    -42461.56125345
  -exchange      EXHF   =         0.00000000
  -V(xc)+E(xc)   XCENC  =       444.51056341
  PAW double counting   =    107420.47772762  -107127.00520463
  entropy T*S    EENTRO =        -0.00000000
  eigenvalues    EBANDS =     -2579.79018118
  atomic energy  EATOM  =      8415.03548706
  ---------------------------------------------------
  free energy    TOTEN  =      -417.12804396 eV

  energy without entropy =     -417.12804396  energy(sigma->0) =     -417.12804396


--------------------------------------------------------------------------------------------------------


  average scaling for gradient   0.8905


 average (electrostatic) potential at core
  the test charge radii are     0.5770  0.5955
  (the norm of the test charge is              1.0000)
       1 -85.6983       2 -85.6891       3 -85.7063       4 -85.7080       5 -85.6868
       6 -85.6809       7 -85.6860       8 -85.6529       9 -85.6783      10 -85.6681
      11 -85.6866      12 -85.6954      13 -85.6682      14 -85.6731      15 -85.6879
      16 -85.6819      17 -85.6890      18 -85.6893      19 -85.6959      20 -85.6906
      21 -85.6684      22 -85.6776      23 -85.7078      24 -85.6916      25 -85.6856
      26 -85.6879      27 -85.6772      28 -85.7002      29 -85.6801      30 -85.6857
      31 -85.7134      32 -85.6971      33 -85.7001      34 -85.6890      35 -85.6843
      36 -85.6895      37 -85.6909      38 -85.6941      39 -85.6940      40 -85.6892
      41 -85.6915      42 -85.6965      43 -85.6886      44 -85.6965      45 -85.6837
      46 -85.6823      47 -85.6956      48 -85.6906      49 -85.6928      50 -85.6916
      51 -89.4795      52-119.9616      53-119.9783
 
 
 
 E-fermi :  -4.0619     XC(G=0):  -2.6585     alpha+bet : -2.1113

 Fermi energy:        -4.0619449259

 k-point     1 :       0.0000    0.0000    0.0000
  band No.  band energies     occupation 
      1     -27.2626      2.00000
      2     -26.2485      2.00000
      3     -22.1085      2.00000
      4     -21.1983      2.00000
      5     -21.1752      2.00000
      6     -21.1668      2.00000
      7     -21.1648      2.00000
      8     -21.1623      2.00000
      9     -21.1576      2.00000
     10     -19.3524      2.00000
     11     -19.3399      2.00000
     12     -19.3293      2.00000
     13     -19.3279      2.00000
     14     -19.3241      2.00000
     15     -19.3235      2.00000
     16     -18.4520      2.00000
     17     -18.4422      2.00000
     18     -18.4360      2.00000
     19     -18.4349      2.00000
     20     -18.4308      2.00000
     21     -18.4297      2.00000
     22     -16.2920      2.00000
     23     -16.2853      2.00000
     24     -16.2771      2.00000
     25     -16.2727      2.00000
     26     -16.2676      2.00000
     27     -16.2664      2.00000
     28     -15.3097      2.00000
     29     -15.3040      2.00000
     30     -15.2969      2.00000
     31     -15.2945      2.00000
     32     -15.2919      2.00000
     33     -15.2902      2.00000
     34     -13.9580      2.00000
     35     -13.9523      2.00000
     36     -13.9499      2.00000
     37     -13.9475      2.00000
     38     -13.9449      2.00000
     39     -13.9442      2.00000
     40     -12.1799      2.00000
     41     -11.5936      2.00000
     42     -11.5815      2.00000
     43     -11.5701      2.00000
     44     -11.5682      2.00000
     45     -11.5669      2.00000
     46     -11.5606      2.00000
     47     -11.4978      2.00000
     48     -11.4844      2.00000
     49     -11.4803      2.00000
     50     -11.4785      2.00000
     51     -11.4727      2.00000
     52     -11.4696      2.00000
     53     -11.2739      2.00000
     54     -11.0234      2.00000
     55     -10.9422      2.00000
     56     -10.1581      2.00000
     57     -10.1097      2.00000
     58     -10.1083      2.00000
     59     -10.1062      2.00000
     60     -10.1050      2.00000
     61     -10.1043      2.00000
     62     -10.1021      2.00000
     63      -9.1466      2.00000
     64      -9.1419      2.00000
     65      -9.1408      2.00000
     66      -9.1359      2.00000
     67      -9.1296      2.00000
     68      -8.8753      2.00000
     69      -8.8476      2.00000
     70      -8.8446      2.00000
     71      -8.8409      2.00000
     72      -8.8396      2.00000
     73      -8.8381      2.00000
     74      -8.8365      2.00000
     75      -8.7878      2.00000
     76      -8.7855      2.00000
     77      -8.7834      2.00000
     78      -8.7819      2.00000
     79      -8.7810      2.00000
     80      -8.7767      2.00000
     81      -7.6475      2.00000
     82      -7.4415      2.00000
     83      -7.1984      2.00000
     84      -7.1945      2.00000
     85      -7.1936      2.00000
     86      -7.1883      2.00000
     87      -7.1878      2.00000
     88      -7.1864      2.00000
     89      -7.0205      2.00000
     90      -7.0072      2.00000
     91      -7.0045      2.00000
     92      -6.9666      2.00000
     93      -6.9464      2.00000
     94      -6.7624      2.00000
     95      -6.1246      2.00000
     96      -6.1196      2.00000
     97      -6.1129      2.00000
     98      -6.0969      2.00000
     99      -6.0751      2.00000
    100      -5.9423      2.00000
    101      -5.7141      2.00000
    102      -5.7113      2.00000
    103      -4.1555      2.00000
    104      -4.1448      2.00000
    105      -4.1287      2.00000
    106      -4.1265      2.00000
    107      -4.1254      2.00000
    108      -4.1079      2.00000
    109      -1.3856      0.00000
    110      -1.3670      0.00000
    111      -1.3362      0.00000
    112      -1.3315      0.00000
    113      -1.3268      0.00000
    114      -1.3090      0.00000
    115       0.1539      0.00000
    116       0.4263      0.00000
    117       0.4752      0.00000
    118       0.5149      0.00000
    119       0.5261      0.00000
    120       0.5336      0.00000
    121       0.5469      0.00000
    122       0.8461      0.00000
    123       1.1461      0.00000
    124       1.2713      0.00000
    125       1.3565      0.00000
    126       1.4716      0.00000
    127       1.4883      0.00000
    128       1.4956      0.00000
    129       1.4967      0.00000
    130       1.6163      0.00000
    131       1.6279      0.00000
    132       2.0704      0.00000
    133       2.2073      0.00000
    134       2.2618      0.00000
    135       2.2726      0.00000
    136       2.3158      0.00000


--------------------------------------------------------------------------------------------------------


 soft charge-density along one line, spin component           1
         0         1         2         3         4         5         6         7         8         9
 total charge-density along one line
 
 pseudopotential strength for first ion, spin component:           1
 12.709  21.387  -0.000   0.000   0.000  -0.000   0.000   0.000
 21.387  35.988  -0.000   0.000   0.000  -0.000   0.000   0.000
 -0.000  -0.000  -3.192  -0.000   0.000  -5.720  -0.000   0.000
  0.000   0.000  -0.000  -3.194  -0.000  -0.000  -5.724  -0.000
  0.000   0.000   0.000  -0.000  -3.192   0.000  -0.000  -5.720
 -0.000  -0.000  -5.720  -0.000   0.000 -10.229  -0.000   0.000
  0.000   0.000  -0.000  -5.724  -0.000  -0.000 -10.236  -0.000
  0.000   0.000   0.000  -0.000  -5.720   0.000  -0.000 -10.229
 total augmentation occupancy for first ion, spin component:           1
  7.651  -2.659  -0.001  -0.001   0.000   0.000   0.001  -0.000
 -2.659   0.962   0.000   0.000  -0.000  -0.000  -0.000   0.000
 -0.001   0.000   7.067  -0.008   0.000  -2.369   0.003  -0.000
 -0.001   0.000  -0.008   3.112  -0.000   0.003  -0.813   0.000
  0.000  -0.000   0.000  -0.000   7.067  -0.000   0.000  -2.369
  0.000  -0.000  -2.369   0.003  -0.000   0.809  -0.001   0.000
  0.001  -0.000   0.003  -0.813   0.000  -0.001   0.219   0.000
 -0.000   0.000  -0.000   0.000  -2.369   0.000   0.000   0.809


------------------------ aborting loop because EDIFF is reached ----------------------------------------


    FORLOC:  cpu time    0.0502: real time    0.0507
    FORNL :  cpu time    0.6795: real time    0.6833
    FORCOR:  cpu time    3.1435: real time    3.1674
    OFIELD:  cpu time    0.0011: real time    0.0012

 VOLUME and BASIS-vectors are now :
 -----------------------------------------------------------------------------
  energy-cutoff  :     1000.00
  volume of cell :     2631.08
      direct lattice vectors                 reciprocal lattice vectors
    12.325000000  0.000000000  0.000000000     0.081135903  0.046843835  0.000000000
    -6.162500000 10.673763102  0.000000000     0.000000000  0.093687670  0.000000000
     0.000000000  0.000000000 20.000000000     0.000000000  0.000000000  0.050000000

  length of vectors
    12.325000000 12.325000000 20.000000000     0.093687670  0.093687670  0.050000000


 FORCES acting on ions:
    Electron-Ion                     Ewald-Force                    Non-Local-Force
 -----------------------------------------------------------------------------------------------
   0.147E+02 0.130E+02 0.216E+02   -.147E+02 -.130E+02 -.217E+02   0.130E-01 -.118E-01 0.231E-01
   0.257E+02 0.130E+02 0.311E+02   -.257E+02 -.129E+02 -.311E+02   0.288E-01 -.161E-01 0.322E-02
   0.137E+02 0.341E+02 0.417E+02   -.137E+02 -.342E+02 -.417E+02   0.329E-02 0.789E-01 0.731E-01
   0.247E+02 0.365E+02 0.801E+02   -.249E+02 -.366E+02 -.803E+02   0.142E+00 0.637E-01 0.832E-01
   0.162E+02 0.387E+01 0.217E+02   -.162E+02 -.385E+01 -.217E+02   -.112E-02 -.242E-01 0.109E-02
   0.172E+02 -.278E+01 0.224E+02   -.172E+02 0.280E+01 -.224E+02   -.380E-01 -.105E-01 -.394E-02
   0.399E+02 0.176E+02 0.652E+02   -.400E+02 -.175E+02 -.651E+02   0.642E-01 -.133E+00 -.125E+00
   0.409E+02 -.131E+02 0.727E+02   -.408E+02 0.132E+02 -.725E+02   -.775E-01 -.325E-01 -.429E+00
   -.148E+02 0.327E+02 0.445E+02   0.148E+02 -.326E+02 -.445E+02   -.262E-01 -.518E-02 -.847E-01
   -.307E+02 0.267E+02 0.808E+02   0.308E+02 -.267E+02 -.807E+02   -.621E-01 0.117E-01 -.512E+00
   0.386E+01 -.330E+01 0.163E+02   -.384E+01 0.327E+01 -.162E+02   -.111E-01 0.841E-02 -.651E-02
   0.299E+01 -.240E+01 0.148E+02   -.299E+01 0.240E+01 -.148E+02   -.190E-01 0.801E-02 0.168E-02
   0.146E+02 -.393E+02 0.872E+02   -.148E+02 0.394E+02 -.871E+02   0.154E+00 0.728E-01 -.544E+00
   0.600E+01 -.351E+02 0.428E+02   -.605E+01 0.351E+02 -.428E+02   0.366E-01 -.199E-01 -.561E-01
   -.146E+02 0.923E+01 0.214E+02   0.146E+02 -.922E+01 -.214E+02   0.244E-01 -.138E-01 0.115E-02
   -.225E+02 0.620E+01 0.267E+02   0.225E+02 -.619E+01 -.267E+02   0.599E-02 0.213E-02 -.189E-01
   -.201E+01 -.838E+00 0.140E+02   0.202E+01 0.833E+00 -.140E+02   -.489E-03 -.777E-02 0.224E-02
   0.117E+01 0.758E+01 0.153E+02   -.117E+01 -.757E+01 -.153E+02   -.112E-01 0.531E-02 0.868E-02
   -.475E+01 -.266E+02 0.290E+02   0.473E+01 0.266E+02 -.291E+02   0.474E-01 0.314E-02 0.387E-01
   -.183E+01 -.119E+02 0.175E+02   0.183E+01 0.119E+02 -.175E+02   -.606E-03 -.403E-02 -.236E-03
   0.278E+02 -.120E+02 0.350E+02   -.277E+02 0.119E+02 -.350E+02   -.974E-02 -.563E-02 -.484E-01
   0.154E+02 -.134E+02 0.247E+02   -.153E+02 0.134E+02 -.247E+02   -.209E-01 0.335E-01 -.398E-03
   -.708E+01 0.189E+02 0.117E+03   0.730E+01 -.191E+02 -.117E+03   -.248E+00 0.155E+00 -.349E+00
   -.161E+02 -.304E+02 0.106E+03   0.160E+02 0.306E+02 -.106E+03   0.172E+00 -.160E+00 -.247E+00
   0.665E+01 -.303E+01 0.164E+02   -.661E+01 0.302E+01 -.164E+02   -.203E-01 0.460E-02 -.911E-02
   0.114E+01 0.601E+01 0.167E+02   -.113E+01 -.601E+01 -.167E+02   -.145E-01 0.577E-02 -.188E-02
   -.385E+02 0.379E+01 0.516E+02   0.385E+02 -.387E+01 -.515E+02   0.110E-01 0.410E-01 -.127E+00
   -.335E+02 -.150E+02 0.435E+02   0.335E+02 0.149E+02 -.435E+02   -.584E-01 0.552E-01 0.419E-01
   0.940E+01 -.195E+02 0.263E+02   -.941E+01 0.195E+02 -.263E+02   0.405E-02 0.225E-01 -.736E-02
   0.866E+00 -.673E+01 0.179E+02   -.891E+00 0.670E+01 -.178E+02   0.951E-02 0.175E-01 -.905E-02
   -.287E+02 -.316E+02 0.577E+02   0.288E+02 0.316E+02 -.578E+02   -.101E+00 -.721E-01 0.132E+00
   -.146E+02 -.264E+02 0.319E+02   0.146E+02 0.265E+02 -.319E+02   -.506E-02 -.462E-01 0.434E-01
   0.738E+00 0.310E+01 0.147E+02   -.735E+00 -.310E+01 -.147E+02   0.107E-01 -.120E-01 0.332E-02
   0.218E+01 0.318E+01 0.162E+02   -.219E+01 -.314E+01 -.162E+02   0.121E-02 -.143E-01 -.660E-02
   -.100E+02 0.113E+01 0.185E+02   0.100E+02 -.114E+01 -.185E+02   0.159E-01 0.148E-02 -.199E-02
   -.850E+01 -.334E+01 0.177E+02   0.851E+01 0.334E+01 -.177E+02   -.124E-01 0.112E-01 -.424E-02
   -.178E+02 -.933E+01 0.225E+02   0.178E+02 0.932E+01 -.225E+02   -.211E-01 0.203E-02 0.284E-02
   -.979E+01 -.799E+01 0.174E+02   0.979E+01 0.799E+01 -.174E+02   -.121E-01 0.348E-02 0.119E-01
   -.931E+01 -.122E+02 0.191E+02   0.932E+01 0.122E+02 -.191E+02   -.127E-01 -.151E-01 0.706E-02
   -.135E+01 -.281E+01 0.152E+02   0.134E+01 0.282E+01 -.152E+02   -.274E-02 -.106E-02 0.721E-02
   0.349E+01 0.821E+01 0.162E+02   -.348E+01 -.823E+01 -.162E+02   -.138E-02 0.147E-01 0.750E-02
   0.121E+02 0.189E+02 0.237E+02   -.121E+02 -.189E+02 -.237E+02   0.179E-01 0.249E-01 0.189E-01
   0.939E+00 0.151E+02 0.190E+02   -.931E+00 -.151E+02 -.190E+02   -.648E-02 0.129E-01 0.469E-03
   0.509E+00 0.311E+02 0.339E+02   -.477E+00 -.311E+02 -.340E+02   -.574E-01 0.135E-01 0.398E-01
   -.287E+01 0.577E+01 0.179E+02   0.288E+01 -.576E+01 -.179E+02   0.226E-02 -.940E-02 -.672E-02
   -.127E+02 0.164E+02 0.250E+02   0.127E+02 -.164E+02 -.250E+02   0.191E-02 -.376E-02 -.125E-01
   -.193E+01 -.555E+01 0.160E+02   0.192E+01 0.555E+01 -.160E+02   0.173E-01 0.447E-02 0.662E-03
   -.522E+01 0.217E+01 0.152E+02   0.520E+01 -.217E+01 -.152E+02   0.147E-01 -.222E-02 -.767E-02
   0.377E+00 -.344E+01 0.149E+02   -.362E+00 0.342E+01 -.149E+02   0.707E-02 -.167E-02 0.387E-02
   0.543E+01 0.401E+01 0.151E+02   -.543E+01 -.401E+01 -.151E+02   -.638E-03 0.114E-01 0.423E-02
   0.555E+00 -.274E+00 -.411E+03   -.545E+00 0.257E+00 0.412E+03   -.506E-01 0.199E-01 -.155E+00
   -.229E+03 0.155E+03 -.630E+03   0.279E+03 -.189E+03 0.633E+03   -.504E+02 0.345E+02 -.175E+01
   0.229E+03 -.155E+03 -.608E+03   -.279E+03 0.189E+03 0.605E+03   0.504E+02 -.346E+02 0.451E+01
 -----------------------------------------------------------------------------------------------
   0.745E-01 0.503E-01 -.550E+00   0.114E-12 0.000E+00 0.227E-12   -.745E-01 -.503E-01 0.548E+00
 
 
 POSITION                                       TOTAL-FORCE (eV/Angst)
 -----------------------------------------------------------------------------------
     11.98348      0.00342      0.01417        -0.001512     -0.008134      0.002000
     -0.34154      1.42665      0.01100         0.027206      0.019663      0.003573
      2.12355      0.00315      0.01249         0.012242     -0.026575      0.018022
      2.12326      1.42653      0.00641        -0.014476      0.008404     -0.103848
     10.75099      2.13819      0.01213        -0.004332     -0.002509      0.005999
     -1.57382      3.56123      0.01110        -0.010929      0.008858      0.005859
      0.89078      2.13854      0.00548        -0.043931      0.009600     -0.089709
      0.89099      3.56147      0.00181        -0.059830      0.043889     -0.238452
      4.58864      0.00346      0.01135         0.017254      0.082780     -0.020939
      4.58894      1.42623      0.00646         0.075526     -0.066333     -0.317521
      9.51854      4.27281      0.01369         0.010213     -0.021532      0.000526
     -2.80632      5.69591      0.01434        -0.023088      0.013680      0.000903
      2.12300      4.27302      0.00000        -0.039559      0.135124     -0.391816
      2.12335      5.69594      0.00581        -0.011621     -0.099979     -0.017786
      7.05344      0.00333      0.01399         0.002082     -0.000202      0.007097
      7.05353      1.42635      0.01368        -0.008886      0.008632      0.005262
      8.28610      6.40752      0.01601         0.008503     -0.012180      0.000005
     -4.03885      7.83070      0.01636        -0.014646      0.013886      0.000228
      3.35586      6.40753      0.01007         0.025584      0.010860      0.011416
      3.35599      7.83072      0.01320        -0.004172     -0.012106      0.001266
     -0.34146      4.27290      0.00723         0.055575     -0.034290     -0.003478
     -0.34138      5.69591      0.00946        -0.008154      0.012900      0.011704
      3.35624      2.13791      0.00222        -0.026057     -0.031212     -0.630552
      3.35573      3.56155      0.00139         0.057529      0.072433     -0.435453
     -1.57395      6.40758      0.01311         0.021888      0.000897     -0.000814
     -1.57385      7.83068      0.01438        -0.005242      0.002745      0.000219
      5.82093      2.13784      0.01033        -0.045764     -0.045628     -0.046853
      5.82114      3.56097      0.01156         0.002513      0.003619      0.014442
      0.89092      6.40755      0.00907        -0.005655      0.002411      0.011139
      0.89106      7.83068      0.01235        -0.015854     -0.008117      0.000460
      4.58871      4.27293      0.00850        -0.007602     -0.029419      0.001483
      4.58852      5.69606      0.01149        -0.004596      0.030314      0.010133
      9.51845      0.00337      0.01490         0.013437     -0.011926      0.000272
      9.51855      1.42644      0.01438        -0.004644      0.020703     -0.000330
      8.28593      2.13803      0.01453         0.001663     -0.012776      0.002362
      8.28613      3.56115      0.01464        -0.003270      0.003439      0.000838
      7.05356      4.27269      0.01457        -0.005605     -0.005967      0.003744
      7.05362      5.69588      0.01553        -0.003656      0.005195      0.000182
      5.82112      6.40755      0.01489        -0.001718     -0.006710     -0.000547
      5.82102      7.83073      0.01579        -0.014297      0.010687     -0.000046
      7.05363      8.54227      0.01631         0.011669     -0.007787      0.001024
     -5.27149      9.96549      0.01495        -0.000201      0.003363     -0.000397
     -2.80638      8.54234      0.01558         0.001888      0.007879      0.001040
     -2.80627      9.96553      0.01362        -0.024079     -0.007284      0.015204
     -0.34149      8.54239      0.01378         0.008493      0.002667      0.001216
     -0.34138      9.96550      0.01354        -0.008102      0.004075      0.007850
      2.12343      8.54232      0.01336         0.009895      0.002774      0.000519
      2.12354      9.96544      0.01469        -0.010152     -0.001119     -0.001989
      4.58846      8.54235      0.01505         0.021754     -0.014886      0.001381
      4.58853      9.96550      0.01517        -0.001075      0.013435      0.001275
      3.04930      2.68154      2.50000        -0.040128      0.002083      0.427552
      4.02070      2.02068      2.56442        -0.437155      0.371831      0.761241
      2.07767      3.34267      2.44055         0.525073     -0.462153      0.963093
 -----------------------------------------------------------------------------------
    total drift:                               -0.000064     -0.000016     -0.002132


--------------------------------------------------------------------------------------------------------



  FREE ENERGIE OF THE ION-ELECTRON SYSTEM (eV)
  ---------------------------------------------------
  free  energy   TOTEN  =      -417.12804396 eV

  energy  without entropy=     -417.12804396  energy(sigma->0) =     -417.12804396
 


--------------------------------------------------------------------------------------------------------


    POTLOK:  cpu time    3.1452: real time    3.1706


--------------------------------------------------------------------------------------------------------


 writing wavefunctions
     LOOP+:  cpu time  202.1847: real time  204.9596
    4ORBIT:  cpu time    0.0000: real time    0.0000

 total amount of memory used by VASP MPI-rank0    85439. kBytes
=======================================================================

   base      :      30000. kBytes
   nonl-proj :       6586. kBytes
   fftplans  :      14299. kBytes
   grid      :      23511. kBytes
   one-center:          6. kBytes
   wavefun   :      11037. kBytes
 
  
  
 General timing and accounting informations for this job:
 ========================================================
  
                  Total CPU time used (sec):      237.680
                            User time (sec):      219.972
                          System time (sec):       17.708
                         Elapsed time (sec):      242.746
  
                   Maximum memory used (kb):      677020.
                   Average memory used (kb):          N/A
  
                          Minor page faults:       356555
                          Major page faults:          453
                 Voluntary context switches:         4130
