 vasp.6.2.1 16May21 (build Nov 06 2021 14:46:37) complex                        
  
 executed on             LinuxIFC date 2025.04.16  18:12:00
 running on  112 total cores
 distrk:  each k-point on  112 cores,    1 groups
 distr:  one band on NCORE=  28 cores,    4 groups


--------------------------------------------------------------------------------------------------------


 INCAR:
   ALGO = Conjugate
   NPAR = 4
   ISMEAR = 0
   SIGMA = 0.01
   PREC = Accurate
   EDIFF = 1E-7
   ENCUT = 1000
   ISIF = 0
   GGA = MK
   PARAM1 = 0.1234
   PARAM2 = 1.0000
   LUSE_VDW = .TRUE.
   AGGAC = 0.0000
   LASPH = .TRUE.
   SYMPREC = 1E-7

 POTCAR:    PAW_PBE C_h 06Feb2004                 
 POTCAR:    PAW_PBE O_h 06Feb2004                 
 -----------------------------------------------------------------------------
|                                                                             |
|           W    W    AA    RRRRR   N    N  II  N    N   GGGG   !!!           |
|           W    W   A  A   R    R  NN   N  II  NN   N  G    G  !!!           |
|           W    W  A    A  R    R  N N  N  II  N N  N  G       !!!           |
|           W WW W  AAAAAA  RRRRR   N  N N  II  N  N N  G  GGG   !            |
|           WW  WW  A    A  R   R   N   NN  II  N   NN  G    G                |
|           W    W  A    A  R    R  N    N  II  N    N   GGGG   !!!           |
|                                                                             |
|     For optimal performance we recommend to set                             |
|       NCORE = 2 up to number-of-cores-per-socket                            |
|     NCORE specifies how many cores store one orbital (NPAR=cpu/NCORE).      |
|     This setting can greatly improve the performance of VASP for DFT.       |
|     The default, NCORE=1 might be grossly inefficient on modern             |
|     multi-core architectures or massively parallel machines. Do your        |
|     own testing! More info at https://www.vasp.at/wiki/index.php/NCORE      |
|     Unfortunately you need to use the default for GW and RPA                |
|     calculations (for HF NCORE is supported but not extensively tested      |
|     yet).                                                                   |
|                                                                             |
 -----------------------------------------------------------------------------

 -----------------------------------------------------------------------------
|                                                                             |
|               ----> ADVICE to this user running VASP <----                  |
|                                                                             |
|     You have switched on vdW-DFT.                                           |
|     This routine was written and supplied by Jiri Klimes. We recommend      |
|     that you carefully read and cite the following publications:            |
|       J. Klimes, D.R. Bowler, A. Michelides                                 |
|          J. Phys.: Cond Matt. 22 022201 (2010)                              |
|       J. Klimes, D.R. Bowler, A. Michelides                                 |
|          Phys. Rev. B. 83, 195131 (2011)                                    |
|     and references therein.                                                 |
|                                                                             |
 -----------------------------------------------------------------------------

 POTCAR:    PAW_PBE C_h 06Feb2004                 
   VRHFIN =C: s2p2                                                                                  
   LEXCH  = PE                                                                                      
   EATOM  =   147.1560 eV,   10.8157 Ry                                                             
                                                                                                    
   TITEL  = PAW_PBE C_h 06Feb2004                                                                   
   LULTRA =        F    use ultrasoft PP ?                                                          
   IUNSCR =        1    unscreen: 0-lin 1-nonlin 2-no                                               
   RPACOR =    0.800    partial core radius                                                         
   POMASS =   12.011; ZVAL   =    4.000    mass and valenz                                          
   RCORE  =    1.100    outmost cutoff radius                                                       
   RWIGS  =    1.630; RWIGS  =    0.863    wigner-seitz radius (au A)                               
   ENMAX  =  700.000; ENMIN  =  500.000 eV                                                          
   ICORE  =        2    local potential                                                             
   LCOR   =        T    correct aug charges                                                         
   LPAW   =        T    paw PP                                                                      
   EAUG   =  946.768                                                                                
   DEXC   =    0.000                                                                                
   RMAX   =    1.128    core radius for proj-oper                                                   
   RAUG   =    1.300    factor for augmentation sphere                                              
   RDEP   =    1.162    radius for radial grids                                                     
   RDEPT  =    1.088    core radius for aug-charge                                                  
                                                                                                    
   Atomic configuration                                                                             
    4 entries                                                                                       
     n  l   j            E        occ.                                                              
     1  0  0.50      -273.3789   2.0000                                                             
     2  0  0.50       -13.7508   2.0000                                                             
     2  1  0.50        -5.2854   2.0000                                                             
     3  2  1.50        -5.4423   0.0000                                                             
   Description                                                                                      
     l       E           TYP  RCUT    TYP  RCUT                                                     
     0    -13.7508458     23  1.100                                                                 
     0     -8.2022199     23  1.100                                                                 
     1     -5.2854383     23  1.100                                                                 
     1      1.1560700     23  1.100                                                                 
     2     -5.4423304      7  1.100                                                                 
  local pseudopotential read in
  partial core-charges read in
  partial kinetic energy density read in
  atomic valenz-charges read in
  non local Contribution for L=           0  read in
    real space projection operators read in
  non local Contribution for L=           0  read in
    real space projection operators read in
  non local Contribution for L=           1  read in
    real space projection operators read in
  non local Contribution for L=           1  read in
    real space projection operators read in
    PAW grid and wavefunctions read in
 
   number of l-projection  operators is LMAX  =           4
   number of lm-projection operators is LMMAX =           8
 
 POTCAR:    PAW_PBE O_h 06Feb2004                 
   VRHFIN =O: s2p4                                                                                  
   LEXCH  = PE                                                                                      
   EATOM  =   432.3788 eV,   31.7789 Ry                                                             
                                                                                                    
   TITEL  = PAW_PBE O_h 06Feb2004                                                                   
   LULTRA =        F    use ultrasoft PP ?                                                          
   IUNSCR =        1    unscreen: 0-lin 1-nonlin 2-no                                               
   RPACOR =    0.800    partial core radius                                                         
   POMASS =   16.000; ZVAL   =    6.000    mass and valenz                                          
   RCORE  =    1.100    outmost cutoff radius                                                       
   RWIGS  =    1.400; RWIGS  =    0.741    wigner-seitz radius (au A)                               
   ENMAX  =  700.000; ENMIN  =  500.000 eV                                                          
   ICORE  =        2    local potential                                                             
   LCOR   =        T    correct aug charges                                                         
   LPAW   =        T    paw PP                                                                      
   EAUG   =  888.804                                                                                
   DEXC   =    0.000                                                                                
   RMAX   =    1.128    core radius for proj-oper                                                   
   RAUG   =    1.300    factor for augmentation sphere                                              
   RDEP   =    1.125    radius for radial grids                                                     
   RDEPT  =    1.088    core radius for aug-charge                                                  
                                                                                                    
   Atomic configuration                                                                             
    4 entries                                                                                       
     n  l   j            E        occ.                                                              
     1  0  0.50      -514.6923   2.0000                                                             
     2  0  0.50       -23.9615   2.0000                                                             
     2  1  0.50        -9.0305   4.0000                                                             
     3  2  1.50        -9.5241   0.0000                                                             
   Description                                                                                      
     l       E           TYP  RCUT    TYP  RCUT                                                     
     0    -23.9615319     23  1.100                                                                 
     0    -25.3221145     23  1.100                                                                 
     1     -9.0304911     23  1.100                                                                 
     1     -5.4802209     23  1.100                                                                 
     2     -9.5240782      7  1.100                                                                 
  local pseudopotential read in
  partial core-charges read in
  partial kinetic energy density read in
  atomic valenz-charges read in
  non local Contribution for L=           0  read in
    real space projection operators read in
  non local Contribution for L=           0  read in
    real space projection operators read in
  non local Contribution for L=           1  read in
    real space projection operators read in
  non local Contribution for L=           1  read in
    real space projection operators read in
    PAW grid and wavefunctions read in
 
   number of l-projection  operators is LMAX  =           4
   number of lm-projection operators is LMMAX =           8
 
 -----------------------------------------------------------------------------
|                                                                             |
|               ----> ADVICE to this user running VASP <----                  |
|                                                                             |
|     You have a (more or less) 'large supercell' and for larger cells it     |
|     might be more efficient to use real-space projection operators.         |
|     Therefore, try LREAL= Auto in the INCAR file.                           |
|     Mind: For very accurate calculation, you might also keep the            |
|     reciprocal projection scheme (i.e. LREAL=.FALSE.).                      |
|                                                                             |
 -----------------------------------------------------------------------------

 -----------------------------------------------------------------------------
|                                                                             |
|               ----> ADVICE to this user running VASP <----                  |
|                                                                             |
|     You enforced a specific xc type in the INCAR file but a different       |
|     type was found in the POTCAR file.                                      |
|     I HOPE YOU KNOW WHAT YOU ARE DOING!                                     |
|                                                                             |
 -----------------------------------------------------------------------------

  PAW_PBE C_h 06Feb2004                 :
 energy of atom  1       EATOM= -147.1560
 kinetic energy error for atom=    0.0031 (will be added to EATOM!!)
  PAW_PBE O_h 06Feb2004                 :
 energy of atom  2       EATOM= -432.3788
 kinetic energy error for atom=    0.0171 (will be added to EATOM!!)
 
 
 POSCAR:  C  O
  positions in cartesian coordinates
  No initial velocities read in
 exchange correlation table for  LEXCH =       43
   RHO(1)=    0.500       N(1)  =     2000
   RHO(2)=  100.500       N(2)  =     4000
 


--------------------------------------------------------------------------------------------------------


 ion  position               nearest neighbor table
   1  0.972  0.000  0.001-  50 1.42   2 1.42  42 1.42
   2  0.039  0.134  0.000-   5 1.42   7 1.42   1 1.42
   3  0.172  0.000  0.000-  42 1.42  44 1.42   4 1.42
   4  0.239  0.134  0.000-   7 1.42   3 1.42  23 1.42
   5  0.972  0.200  0.000-   6 1.42   2 1.42  34 1.42
   6  0.039  0.334  0.000-   5 1.42  21 1.42  11 1.42
   7  0.172  0.200  0.000-   8 1.42   2 1.42   4 1.42
   8  0.239  0.334  0.000-  13 1.42   7 1.42  21 1.42
   9  0.372  0.000  0.000-  10 1.42  44 1.42  46 1.42
  10  0.439  0.134  0.000-  27 1.42   9 1.42  23 1.42
  11  0.972  0.400  0.001-  12 1.42  36 1.42   6 1.42
  12  0.039  0.534  0.001-  25 1.42  11 1.42  17 1.42
  13  0.372  0.400  0.000-   8 1.42  14 1.42  24 1.42
  14  0.439  0.534  0.000-  13 1.42  29 1.42  19 1.42
  15  0.572  0.000  0.001-  46 1.42  16 1.42  48 1.42
  16  0.639  0.134  0.001-  15 1.42  35 1.42  27 1.42
  17  0.972  0.600  0.001-  38 1.42  18 1.42  12 1.42
  18  0.039  0.734  0.001-  43 1.42  41 1.42  17 1.42
  19  0.572  0.600  0.000-  14 1.42  20 1.42  32 1.42
  20  0.639  0.734  0.001-  49 1.42  19 1.42  47 1.42
  21  0.172  0.400  0.000-  22 1.42   8 1.42   6 1.42
  22  0.239  0.534  0.000-  21 1.42  29 1.42  25 1.42
  23  0.372  0.200  0.000-  10 1.42   4 1.42  24 1.42
  24  0.439  0.334  0.000-  13 1.42  31 1.42  23 1.42
  25  0.172  0.600  0.001-  26 1.42  12 1.42  22 1.42
  26  0.239  0.734  0.001-  25 1.42  45 1.42  43 1.42
  27  0.572  0.200  0.000-  10 1.42  28 1.42  16 1.42
  28  0.639  0.334  0.000-  27 1.42  37 1.42  31 1.42
  29  0.372  0.600  0.000-  22 1.42  14 1.42  30 1.42
  30  0.439  0.734  0.000-  47 1.42  29 1.42  45 1.42
  31  0.572  0.400  0.000-  32 1.42  28 1.42  24 1.42
  32  0.639  0.534  0.000-  31 1.42  39 1.42  19 1.42
  33  0.772  0.000  0.001-  34 1.42  48 1.42  50 1.42
  34  0.839  0.134  0.001-  33 1.42   5 1.42  35 1.42
  35  0.772  0.200  0.001-  36 1.42  16 1.42  34 1.42
  36  0.839  0.334  0.001-  35 1.42  11 1.42  37 1.42
  37  0.772  0.400  0.001-  28 1.42  38 1.42  36 1.42
  38  0.839  0.534  0.001-  17 1.42  37 1.42  39 1.42
  39  0.772  0.600  0.001-  40 1.42  38 1.42  32 1.42
  40  0.839  0.734  0.001-  39 1.42  49 1.42  41 1.42
  41  0.972  0.800  0.001-  18 1.42  42 1.42  40 1.42
  42  0.039  0.934  0.001-   3 1.42  41 1.42   1 1.42
  43  0.172  0.800  0.001-  18 1.42  44 1.42  26 1.42
  44  0.239  0.934  0.001-   9 1.42  43 1.42   3 1.42
  45  0.372  0.800  0.001-  26 1.42  46 1.42  30 1.42
  46  0.439  0.934  0.001-  15 1.42  45 1.42   9 1.42
  47  0.572  0.800  0.001-  30 1.42  48 1.42  20 1.42
  48  0.639  0.934  0.001-  47 1.42  33 1.42  15 1.42
  49  0.772  0.800  0.001-  50 1.42  20 1.42  40 1.42
  50  0.839  0.934  0.001-  49 1.42   1 1.42  33 1.42
  51  0.373  0.251  0.238-  52 1.18  53 1.18
  52  0.421  0.189  0.240-  51 1.18
  53  0.325  0.313  0.235-  51 1.18
 
  LATTYP: Found a hexagonal cell.
 ALAT       =    12.3250000000
 C/A-ratio  =     2.0283975659
  
  Lattice vectors:
  
 A1 = (  12.3250000000,   0.0000000000,   0.0000000000)
 A2 = (  -6.1625000000,  10.6737631016,   0.0000000000)
 A3 = (   0.0000000000,   0.0000000000,  25.0000000000)


Analysis of symmetry for initial positions (statically):
=====================================================================
 Subroutine PRICEL returns:
 Original cell was already a primitive cell.
 

 Routine SETGRP: Setting up the symmetry group for a 
 hexagonal supercell.


 Subroutine GETGRP returns: Found  1 space group operations
 (whereof  1 operations were pure point group operations)
 out of a pool of 24 trial point group operations.


The static configuration has the point symmetry C_1 .


Analysis of symmetry for dynamics (positions and initial velocities):
=====================================================================
 Subroutine PRICEL returns:
 Original cell was already a primitive cell.
 

 Routine SETGRP: Setting up the symmetry group for a 
 hexagonal supercell.


 Subroutine GETGRP returns: Found  1 space group operations
 (whereof  1 operations were pure point group operations)
 out of a pool of 24 trial point group operations.


The dynamic configuration has the point symmetry C_1 .


 Subroutine INISYM returns: Found  1 space group operations
 (whereof  1 operations are pure point group operations),
 and found     1 'primitive' translations


----------------------------------------------------------------------------------------

                                     Primitive cell                                     

  volume of cell :    3288.8533

  direct lattice vectors                    reciprocal lattice vectors
    12.325000000  0.000000000  0.000000000     0.081135903  0.046843835  0.000000000
    -6.162500000 10.673763102  0.000000000     0.000000000  0.093687670  0.000000000
     0.000000000  0.000000000 25.000000000     0.000000000  0.000000000  0.040000000

  length of vectors
    12.325000000 12.325000000 25.000000000     0.093687670  0.093687670  0.040000000

  position of ions in fractional coordinates (direct lattice)
     0.972450841  0.000320818  0.000566711
     0.039118382  0.133659505  0.000440173
     0.172443627  0.000295449  0.000499628
     0.239096278  0.133647917  0.000256468
     0.972452058  0.200322012  0.000485219
     0.039128360  0.333643771  0.000444150
     0.172451764  0.200354552  0.000219167
     0.239124359  0.333665720  0.000072260
     0.372465565  0.000324403  0.000453913
     0.439137473  0.133619939  0.000258338
     0.972449824  0.400309362  0.000547611
     0.039124981  0.533636789  0.000573410
     0.372416176  0.400329481  0.000000000
     0.439099602  0.533638981  0.000232414
     0.572443676  0.000312125  0.000559580
     0.639110207  0.133631751  0.000547275
     0.972452703  0.600305653  0.000640289
     0.039124495  0.733640359  0.000654513
     0.572433471  0.600306242  0.000402895
     0.639111888  0.733641879  0.000527905
     0.172454630  0.400318228  0.000289045
     0.239120185  0.533636548  0.000378509
     0.372459750  0.200295993  0.000088997
     0.439107096  0.333673419  0.000055762
     0.172452155  0.600311506  0.000524340
     0.239123371  0.733638574  0.000575129
     0.572431082  0.200289171  0.000413296
     0.639112773  0.333618630  0.000462376
     0.372439808  0.600308022  0.000362844
     0.439116090  0.733637858  0.000494190
     0.572469358  0.400320504  0.000339918
     0.639119408  0.533650873  0.000459610
     0.772445723  0.000315427  0.000596161
     0.839116277  0.133640203  0.000575306
     0.772440513  0.200307432  0.000581033
     0.839120241  0.333635728  0.000585467
     0.772446320  0.400298367  0.000582978
     0.839118980  0.533633964  0.000621100
     0.772456143  0.600308173  0.000595712
     0.839115033  0.733643180  0.000631512
     0.972455313  0.800305582  0.000652233
     0.039114714  0.933643289  0.000598051
     0.172457971  0.800312211  0.000623372
     0.239134551  0.933647193  0.000544850
     0.372451396  0.800316674  0.000551399
     0.439124489  0.933644769  0.000541430
     0.572441101  0.800310054  0.000534535
     0.639115067  0.933638985  0.000587644
     0.772445098  0.800313187  0.000602062
     0.839116614  0.933644338  0.000606830
     0.373021009  0.251226878  0.237841423
     0.420879805  0.189313152  0.240418298
     0.325156981  0.313167186  0.235463228

  ion indices of the primitive-cell ions
   primitive index   ion index
                 1           1
                 2           2
                 3           3
                 4           4
                 5           5
                 6           6
                 7           7
                 8           8
                 9           9
                10          10
                11          11
                12          12
                13          13
                14          14
                15          15
                16          16
                17          17
                18          18
                19          19
                20          20
                21          21
                22          22
                23          23
                24          24
                25          25
                26          26
                27          27
                28          28
                29          29
                30          30
                31          31
                32          32
                33          33
                34          34
                35          35
                36          36
                37          37
                38          38
                39          39
                40          40
                41          41
                42          42
                43          43
                44          44
                45          45
                46          46
                47          47
                48          48
                49          49
                50          50
                51          51
                52          52
                53          53

----------------------------------------------------------------------------------------

 
 
 KPOINTS: auto                                    

Automatic generation of k-mesh.
 Grid dimensions read from file:
 generate k-points for:    1    1    1

 Generating k-lattice:

  Cartesian coordinates                     Fractional coordinates (reciprocal lattice)
     0.081135903  0.046843835  0.000000000     1.000000000 -0.000000000  0.000000000
     0.000000000  0.093687670  0.000000000     0.000000000  1.000000000  0.000000000
     0.000000000  0.000000000  0.040000000     0.000000000  0.000000000  1.000000000

  Length of vectors
     0.093687670  0.093687670  0.040000000

  Shift w.r.t. Gamma in fractional coordinates (k-lattice)
     0.000000000  0.000000000  0.000000000

 
 Subroutine IBZKPT returns following result:
 ===========================================
 
 Found      1 irreducible k-points:
 
 Following reciprocal coordinates:
            Coordinates               Weight
  0.000000  0.000000  0.000000      1.000000
 
 Following cartesian coordinates:
            Coordinates               Weight
  0.000000  0.000000  0.000000      1.000000
 


--------------------------------------------------------------------------------------------------------




 Dimension of arrays:
   k-points           NKPTS =      1   k-points in BZ     NKDIM =      1   number of bands    NBANDS=    136
   number of dos      NEDOS =    301   number of ions     NIONS =     53
   non local maximal  LDIM  =      4   non local SUM 2l+1 LMDIM =      8
   total plane-waves  NPLWV = ******
   max r-space proj   IRMAX =      1   max aug-charges    IRDMAX=  10008
   dimension x,y,z NGX =   128 NGY =  128 NGZ =  270
   dimension x,y,z NGXF=   256 NGYF=  256 NGZF=  540
   support grid    NGXF=   256 NGYF=  256 NGZF=  540
   ions per type =              51   2
   NGX,Y,Z   is equivalent  to a cutoff of  17.27, 17.27, 17.95 a.u.
   NGXF,Y,Z  is equivalent  to a cutoff of  34.53, 34.53, 35.91 a.u.

 SYSTEM =  unknown system                          
 POSCAR =   C  O                                   

 Startparameter for this run:
   NWRITE =      2    write-flag & timer
   PREC   = accura    normal or accurate (medium, high low for compatibility)
   ISTART =      0    job   : 0-new  1-cont  2-samecut
   ICHARG =      2    charge: 1-file 2-atom 10-const
   ISPIN  =      1    spin polarized calculation?
   LNONCOLLINEAR =      F non collinear calculations
   LSORBIT =      F    spin-orbit coupling
   INIWAV =      1    electr: 0-lowe 1-rand  2-diag
   LASPH  =      T    aspherical Exc in radial PAW
 Electronic Relaxation 1
   ENCUT  = 1000.0 eV  73.50 Ry    8.57 a.u.  31.78 31.78 64.46*2*pi/ulx,y,z
   ENINI  = 1000.0     initial cutoff
   ENAUG  =  946.8 eV  augmentation charge cutoff
   NELM   =     60;   NELMIN=  2; NELMDL= -5     # of ELM steps 
   EDIFF  = 0.1E-06   stopping-criterion for ELM
   LREAL  =      F    real-space projection
   NLSPLINE    = F    spline interpolate recip. space projectors
   LCOMPAT=      F    compatible to vasp.4.4
   GGA_COMPAT  = T    GGA compatible to vasp.4.4-vasp.4.6
   LMAXPAW     = -100 max onsite density
   LMAXMIX     =    2 max onsite mixed and CHGCAR
   VOSKOWN=      0    Vosko Wilk Nusair interpolation
   ROPT   =    0.00000   0.00000
 Ionic relaxation
   EDIFFG = 0.1E-05   stopping-criterion for IOM
   NSW    =      0    number of steps for IOM
   NBLOCK =      1;   KBLOCK =      1    inner block; outer block 
   IBRION =     -1    ionic relax: 0-MD 1-quasi-New 2-CG
   NFREE  =      0    steps in history (QN), initial steepest desc. (CG)
   ISIF   =      0    stress and relaxation
   IWAVPR =     10    prediction:  0-non 1-charg 2-wave 3-comb
   ISYM   =      2    0-nonsym 1-usesym 2-fastsym
   LCORR  =      T    Harris-Foulkes like correction to forces

   POTIM  = 0.5000    time-step for ionic-motion
   TEIN   =    0.0    initial temperature
   TEBEG  =    0.0;   TEEND  =   0.0 temperature during run
   SMASS  =  -3.00    Nose mass-parameter (am)
   estimated Nose-frequenzy (Omega)   =  0.10E-29 period in steps = 0.13E+47 mass=  -0.347E-26a.u.
   SCALEE = 1.0000    scale energy and forces
   NPACO  =    256;   APACO  = 16.0  distance and # of slots for P.C.
   PSTRESS=    0.0 pullay stress

  Mass of Ions in am
   POMASS =  12.01 16.00
  Ionic Valenz
   ZVAL   =   4.00  6.00
  Atomic Wigner-Seitz radii
   RWIGS  =  -1.00 -1.00
  virtual crystal weights 
   VCA    =   1.00  1.00
   NELECT =     216.0000    total number of electrons
   NUPDOWN=      -1.0000    fix difference up-down

 DOS related values:
   EMIN   =  10.00;   EMAX   =-10.00  energy-range for DOS
   EFERMI =   0.00
   ISMEAR =     0;   SIGMA  =   0.01  broadening in eV -4-tet -1-fermi 0-gaus

 Electronic relaxation 2 (details)
   IALGO  =     58    algorithm
   LDIAG  =      T    sub-space diagonalisation (order eigenvalues)
   LSUBROT=      F    optimize rotation matrix (better conditioning)
   TURBO    =      0    0=normal 1=particle mesh
   IRESTART =      0    0=no restart 2=restart with 2 vectors
   NREBOOT  =      0    no. of reboots
   NMIN     =      0    reboot dimension
   EREF     =   0.00    reference energy to select bands
   IMIX   =      4    mixing-type and parameters
     AMIX     =   0.40;   BMIX     =  1.00
     AMIX_MAG =   1.60;   BMIX_MAG =  1.00
     AMIN     =   0.10
     WC   =   100.;   INIMIX=   1;  MIXPRE=   1;  MAXMIX= -45

 Intra band minimization:
   WEIMIN = 0.0000     energy-eigenvalue tresh-hold
   EBREAK =  0.18E-09  absolut break condition
   DEPER  =   0.30     relativ break condition  

   TIME   =   0.40     timestep for ELM

  volume/ion in A,a.u.               =      62.05       418.76
  Fermi-wavevector in a.u.,A,eV,Ry     =   0.660508  1.248179  5.935820  0.436270
  Thomas-Fermi vector in A             =   1.732977
 
 Write flags
   LWAVE        =      T    write WAVECAR
   LDOWNSAMPLE  =      F    k-point downsampling of WAVECAR
   LCHARG       =      T    write CHGCAR
   LVTOT        =      F    write LOCPOT, total local potential
   LVHAR        =      F    write LOCPOT, Hartree potential only
   LELF         =      F    write electronic localiz. function (ELF)
   LORBIT       =      0    0 simple, 1 ext, 2 COOP (PROOUT), +10 PAW based schemes


 Dipole corrections
   LMONO  =      F    monopole corrections only (constant potential shift)
   LDIPOL =      F    correct potential (dipole corrections)
   IDIPOL =      0    1-x, 2-y, 3-z, 4-all directions 
   EPSILON=  1.0000000 bulk dielectric constant

 Exchange correlation treatment:
   GGA     =    MK    GGA type
   LEXCH   =    43    internal setting for exchange type
   VOSKOWN=      0    Vosko Wilk Nusair interpolation
   LHFCALC =     F    Hartree Fock is set to
   LHFONE  =     F    Hartree Fock one center treatment
   AEXX    =    0.0000 exact exchange contribution

 vdW DFT:
   LUSE_VDW   =     T    switch on vdW DFT
   Zab_VDW    =-.8491    correlation parameter
   PARAM1     =0.1234
   PARAM2     =1.0000
   PARAM3     =0.0000
   -- rVV10 --
   BPARAM     = 6.3000
   CPARAM     = 0.0093

 Linear response parameters
   LEPSILON=     F    determine dielectric tensor
   LRPA    =     F    only Hartree local field effects (RPA)
   LNABLA  =     F    use nabla operator in PAW spheres
   LVEL    =     F    velocity operator in full k-point grid
   LINTERFAST=   F  fast interpolation
   KINTER  =     0    interpolate to denser k-point grid
   CSHIFT  =0.1000    complex shift for real part using Kramers Kronig
   OMEGAMAX=  -1.0    maximum frequency
   DEG_THRESHOLD= 0.2000000E-02 threshold for treating states as degnerate
   RTIME   =   -0.100 relaxation time in fs
  (WPLASMAI=    0.000 imaginary part of plasma frequency in eV, 0.658/RTIME)
   DFIELD  = 0.0000000 0.0000000 0.0000000 field for delta impulse in time
 
 Orbital magnetization related:
   ORBITALMAG=     F  switch on orbital magnetization
   LCHIMAG   =     F  perturbation theory with respect to B field
   DQ        =  0.001000  dq finite difference perturbation B field
   LLRAUG    =     F  two centre corrections for induced B field



--------------------------------------------------------------------------------------------------------


 Static calculation
 charge density and potential will be updated during run
 non-spin polarized calculation
 Conjugate gradient for all bands (Freysoldt, et al. PRB 79, 241103 (2009))
 preconditioned conjugated gradient                                        
 perform sub-space diagonalisation
    before iterative eigenvector-optimisation
 modified Broyden-mixing scheme, WC =      100.0
 initial mixing is a Kerker type mixing with AMIX =  0.4000 and BMIX =      1.0000
 Hartree-type preconditioning will be used
 using additional bands           28
 reciprocal scheme for non local part
 use partial core corrections
 no Harris-corrections to forces 
 use gradient corrections 
 use of overlap-Matrix (Vanderbilt PP)
 Gauss-broadening in eV      SIGMA  =   0.01


--------------------------------------------------------------------------------------------------------


  energy-cutoff  :     1000.00
  volume of cell :     3288.85
      direct lattice vectors                 reciprocal lattice vectors
    12.325000000  0.000000000  0.000000000     0.081135903  0.046843835  0.000000000
    -6.162500000 10.673763102  0.000000000     0.000000000  0.093687670  0.000000000
     0.000000000  0.000000000 25.000000000     0.000000000  0.000000000  0.040000000

  length of vectors
    12.325000000 12.325000000 25.000000000     0.093687670  0.093687670  0.040000000


 
 k-points in units of 2pi/SCALE and weight: auto                                    
   0.00000000  0.00000000  0.00000000       1.000
 
 k-points in reciprocal lattice and weights: auto                                    
   0.00000000  0.00000000  0.00000000       1.000
 
 position of ions in fractional coordinates (direct lattice) 
   0.97245084  0.00032082  0.00056671
   0.03911838  0.13365950  0.00044017
   0.17244363  0.00029545  0.00049963
   0.23909628  0.13364792  0.00025647
   0.97245206  0.20032201  0.00048522
   0.03912836  0.33364377  0.00044415
   0.17245176  0.20035455  0.00021917
   0.23912436  0.33366572  0.00007226
   0.37246557  0.00032440  0.00045391
   0.43913747  0.13361994  0.00025834
   0.97244982  0.40030936  0.00054761
   0.03912498  0.53363679  0.00057341
   0.37241618  0.40032948  0.00000000
   0.43909960  0.53363898  0.00023241
   0.57244368  0.00031213  0.00055958
   0.63911021  0.13363175  0.00054727
   0.97245270  0.60030565  0.00064029
   0.03912449  0.73364036  0.00065451
   0.57243347  0.60030624  0.00040289
   0.63911189  0.73364188  0.00052791
   0.17245463  0.40031823  0.00028904
   0.23912018  0.53363655  0.00037851
   0.37245975  0.20029599  0.00008900
   0.43910710  0.33367342  0.00005576
   0.17245216  0.60031151  0.00052434
   0.23912337  0.73363857  0.00057513
   0.57243108  0.20028917  0.00041330
   0.63911277  0.33361863  0.00046238
   0.37243981  0.60030802  0.00036284
   0.43911609  0.73363786  0.00049419
   0.57246936  0.40032050  0.00033992
   0.63911941  0.53365087  0.00045961
   0.77244572  0.00031543  0.00059616
   0.83911628  0.13364020  0.00057531
   0.77244051  0.20030743  0.00058103
   0.83912024  0.33363573  0.00058547
   0.77244632  0.40029837  0.00058298
   0.83911898  0.53363396  0.00062110
   0.77245614  0.60030817  0.00059571
   0.83911503  0.73364318  0.00063151
   0.97245531  0.80030558  0.00065223
   0.03911471  0.93364329  0.00059805
   0.17245797  0.80031221  0.00062337
   0.23913455  0.93364719  0.00054485
   0.37245140  0.80031667  0.00055140
   0.43912449  0.93364477  0.00054143
   0.57244110  0.80031005  0.00053453
   0.63911507  0.93363899  0.00058764
   0.77244510  0.80031319  0.00060206
   0.83911661  0.93364434  0.00060683
   0.37302101  0.25122688  0.23784142
   0.42087980  0.18931315  0.24041830
   0.32515698  0.31316719  0.23546323
 
 position of ions in cartesian coordinates  (Angst):
  11.98347958  0.00342433  0.01416777
  -0.34154264  1.42664989  0.01100432
   2.12354700  0.00315355  0.01249070
   2.12325634  1.42652621  0.00641170
  10.75098721  2.13818970  0.01213047
  -1.57382270  3.56123457  0.01110375
   0.89078307  2.13853702  0.00547917
   0.89099273  3.56146885  0.00180651
   4.58863896  0.00346260  0.01134782
   4.58893648  1.42622757  0.00645846
   9.51853763  4.27280730  0.01369027
  -2.80632132  5.69591267  0.01433526
   2.12299894  4.27302204  0.00000000
   2.12335237  5.69593607  0.00581036
   7.05344483  0.00333155  0.01398950
   7.05352764  1.42635365  0.01368187
   8.28609598  6.40752033  0.01600723
  -4.03884931  7.83070339  0.01636283
   3.35585531  6.40752662  0.01007237
   3.35598594  7.83071962  0.01319763
  -0.34145776  4.27290193  0.00722612
  -0.34137895  5.69591010  0.00946273
   3.35624236  2.13791198  0.00222492
   3.35573251  3.56155103  0.00139405
  -1.57394684  6.40758280  0.01310850
  -1.57385216  7.83068434  0.01437823
   5.82093107  2.13783916  0.01033241
   5.82114012  3.56096622  0.01155939
   0.89092245  6.40754561  0.00907111
   0.89106251  7.83067670  0.01235474
   4.58870974  4.27292622  0.00849795
   4.58852320  5.69606300  0.01149026
   9.51844972  0.00336679  0.01490402
   9.51855036  1.42644387  0.01438264
   8.28593477  2.13803408  0.01452582
   8.28612680  3.56114872  0.01463668
   7.05356221  4.27268994  0.01457444
   7.05362213  5.69588251  0.01552751
   5.82112285  6.40754723  0.01489279
   5.82101669  7.83073350  0.01578780
   7.05362858  8.54227219  0.01630582
  -5.27148792  9.96548729  0.01495127
  -2.80637951  8.54234295  0.01558431
  -2.80626749  9.96552896  0.01362126
  -0.34148805  8.54239058  0.01378498
  -0.34137657  9.96550309  0.01353576
   2.12342586  8.54231992  0.01336337
   2.12354296  9.96544135  0.01469111
   4.58845581  8.54235337  0.01505154
   4.58852904  9.96549848  0.01517076
   3.04929830  2.68153618  5.94603558
   4.02070129  2.02068374  6.01045744
   2.07766701  3.34267235  5.88658071
 


--------------------------------------------------------------------------------------------------------


 k-point   1 :   0.0000 0.0000 0.0000  plane waves:  236157

 maximum and minimum number of plane-waves per node :      8440     8428

 maximum number of plane-waves:    236157
 maximum index in each direction: 
   IXMAX=   31   IYMAX=   31   IZMAX=   64
   IXMIN=  -31   IYMIN=  -31   IZMIN=  -64


 parallel 3D FFT for wavefunctions:
    minimum data exchange during FFTs selected (reduces bandwidth)
 parallel 3D FFT for charge:
    minimum data exchange during FFTs selected (reduces bandwidth)


 total amount of memory used by VASP MPI-rank0   100580. kBytes
=======================================================================

   base      :      30000. kBytes
   nonl-proj :       8229. kBytes
   fftplans  :      18352. kBytes
   grid      :      30208. kBytes
   one-center:          6. kBytes
   wavefun   :      13785. kBytes
 
     INWAV:  cpu time    0.0000: real time    0.0000
 Broyden mixing: mesh for mixing (old mesh)
   NGX = 63   NGY = 63   NGZ =129
  (NGX  =256   NGY  =256   NGZ  =540)
  gives a total of 512001 points

 initial charge density was supplied:
 charge density of overlapping atoms calculated
 number of electron     216.0000000 magnetization 
 keeping initial charge density in first step


--------------------------------------------------------------------------------------------------------


 Maximum index for augmentation-charges          471 (set IRDMAX)


--------------------------------------------------------------------------------------------------------


 First call to EWALD:  gamma=   0.119
 Maximum number of real-space cells 4x 4x 2
 Maximum number of reciprocal cells 2x 2x 4

    FEWALD:  cpu time    0.0023: real time    0.0023


--------------------------------------- Iteration      1(   1)  ---------------------------------------


vdW kernel read from vdw_kernel.bindat
  0.0000  0.2424  0.5071  0.7962  1.1119  1.4567  1.8333  2.2446  2.6937  3.1842
  3.7199  4.3049  4.9438  5.6415  6.4036  7.2358  8.1446  9.1372 10.2212 11.4050
 12.6979 14.1099 15.6519 17.3360 19.1751 21.1837 23.3773 25.7729 28.3892 31.2465
 34.3669 37.7748 41.4965 45.5611 50.0000
 
    POTLOK:  cpu time    4.5711: real time    4.6201
    SETDIJ:  cpu time    0.0555: real time    0.0559
    TRIAL :  cpu time    2.0859: real time    2.1047
    CORREC:  cpu time    0.0003: real time    0.0005
    --------------------------------------------
      LOOP:  cpu time    6.7195: real time    6.7899

 eigenvalue-minimisations  :   288
 total energy-change (2. order) : 0.2746071E+04  (-0.1019831E+05)
 number of electron     216.0000000 magnetization 
 augmentation part      216.0000000 magnetization 

 Free energy of the ion-electron system (eV)
  ---------------------------------------------------
  alpha Z        PSCENC =        47.94900195
  Ewald energy   TEWEN  =     43620.90154586
  -Hartree energ DENC   =    -49690.08595189
  -exchange      EXHF   =         0.00000000
  -V(xc)+E(xc)   XCENC  =       414.10799678
  PAW double counting   =      6552.85433684    -6257.21772958
  entropy T*S    EENTRO =        -0.00000000
  eigenvalues    EBANDS =      -357.47351761
  atomic energy  EATOM  =      8415.03548706
  ---------------------------------------------------
  free energy    TOTEN  =      2746.07116942 eV

  energy without entropy =     2746.07116942  energy(sigma->0) =     2746.07116942


--------------------------------------------------------------------------------------------------------




--------------------------------------- Iteration      1(   2)  ---------------------------------------


    TRIAL :  cpu time    2.8782: real time    2.9044
    CORREC:  cpu time    0.0001: real time    0.0001
    --------------------------------------------
      LOOP:  cpu time    2.9471: real time    2.9893

 eigenvalue-minimisations  :   448
 total energy-change (2. order) :-0.2309876E+04  (-0.2163543E+04)
 number of electron     216.0000000 magnetization 
 augmentation part      216.0000000 magnetization 

 Free energy of the ion-electron system (eV)
  ---------------------------------------------------
  alpha Z        PSCENC =        47.94900195
  Ewald energy   TEWEN  =     43620.90154586
  -Hartree energ DENC   =    -49690.08595189
  -exchange      EXHF   =         0.00000000
  -V(xc)+E(xc)   XCENC  =       414.10799678
  PAW double counting   =      6552.85433684    -6257.21772958
  entropy T*S    EENTRO =        -0.00000000
  eigenvalues    EBANDS =     -2667.34983469
  atomic energy  EATOM  =      8415.03548706
  ---------------------------------------------------
  free energy    TOTEN  =       436.19485234 eV

  energy without entropy =      436.19485234  energy(sigma->0) =      436.19485234


--------------------------------------------------------------------------------------------------------




--------------------------------------- Iteration      1(   3)  ---------------------------------------


    TRIAL :  cpu time    2.3402: real time    2.3599
    CORREC:  cpu time    0.0001: real time    0.0000
    --------------------------------------------
      LOOP:  cpu time    2.4277: real time    2.4629

 eigenvalue-minimisations  :   344
 total energy-change (2. order) :-0.8084417E+03  (-0.7951778E+03)
 number of electron     216.0000000 magnetization 
 augmentation part      216.0000000 magnetization 

 Free energy of the ion-electron system (eV)
  ---------------------------------------------------
  alpha Z        PSCENC =        47.94900195
  Ewald energy   TEWEN  =     43620.90154586
  -Hartree energ DENC   =    -49690.08595189
  -exchange      EXHF   =         0.00000000
  -V(xc)+E(xc)   XCENC  =       414.10799678
  PAW double counting   =      6552.85433684    -6257.21772958
  entropy T*S    EENTRO =        -0.00000000
  eigenvalues    EBANDS =     -3475.79151329
  atomic energy  EATOM  =      8415.03548706
  ---------------------------------------------------
  free energy    TOTEN  =      -372.24682627 eV

  energy without entropy =     -372.24682627  energy(sigma->0) =     -372.24682627


--------------------------------------------------------------------------------------------------------




--------------------------------------- Iteration      1(   4)  ---------------------------------------


    TRIAL :  cpu time    2.3580: real time    2.3779
    CORREC:  cpu time    0.0000: real time    0.0001
    --------------------------------------------
      LOOP:  cpu time    2.3907: real time    2.4164

 eigenvalue-minimisations  :   344
 total energy-change (2. order) :-0.7546599E+02  (-0.7431860E+02)
 number of electron     216.0000000 magnetization 
 augmentation part      216.0000000 magnetization 

 Free energy of the ion-electron system (eV)
  ---------------------------------------------------
  alpha Z        PSCENC =        47.94900195
  Ewald energy   TEWEN  =     43620.90154586
  -Hartree energ DENC   =    -49690.08595189
  -exchange      EXHF   =         0.00000000
  -V(xc)+E(xc)   XCENC  =       414.10799678
  PAW double counting   =      6552.85433684    -6257.21772958
  entropy T*S    EENTRO =        -0.00000000
  eigenvalues    EBANDS =     -3551.25750633
  atomic energy  EATOM  =      8415.03548706
  ---------------------------------------------------
  free energy    TOTEN  =      -447.71281931 eV

  energy without entropy =     -447.71281931  energy(sigma->0) =     -447.71281931


--------------------------------------------------------------------------------------------------------




--------------------------------------- Iteration      1(   5)  ---------------------------------------


    TRIAL :  cpu time    2.4220: real time    2.4465
    CORREC:  cpu time    0.0001: real time    0.0001
    CHARGE:  cpu time    0.1809: real time    0.1828
    --------------------------------------------
      LOOP:  cpu time    2.6499: real time    2.6894

 eigenvalue-minimisations  :   360
 total energy-change (2. order) :-0.2253039E+01  (-0.2235262E+01)
 number of electron     216.0000000 magnetization 
 augmentation part       -0.2544098 magnetization 

 Free energy of the ion-electron system (eV)
  ---------------------------------------------------
  alpha Z        PSCENC =        47.94900195
  Ewald energy   TEWEN  =     43620.90154586
  -Hartree energ DENC   =    -49690.08595189
  -exchange      EXHF   =         0.00000000
  -V(xc)+E(xc)   XCENC  =       414.10799678
  PAW double counting   =      6552.85433684    -6257.21772958
  entropy T*S    EENTRO =        -0.00000000
  eigenvalues    EBANDS =     -3553.51054547
  atomic energy  EATOM  =      8415.03548706
  ---------------------------------------------------
  free energy    TOTEN  =      -449.96585844 eV

  energy without entropy =     -449.96585844  energy(sigma->0) =     -449.96585844


--------------------------------------------------------------------------------------------------------




--------------------------------------- Iteration      1(   6)  ---------------------------------------


    POTLOK:  cpu time    4.2422: real time    4.2724
    SETDIJ:  cpu time    0.0541: real time    0.0542
    TRIAL :  cpu time    1.1690: real time    1.1795
    CORREC:  cpu time    4.7236: real time    4.7607
    CHARGE:  cpu time    0.1778: real time    0.1799
    --------------------------------------------
      LOOP:  cpu time   10.4356: real time   10.5196

 eigenvalue-minimisations  :     0
 total energy-change (2. order) : 0.5110565E+02  (-0.1585483E+02)
 number of electron     216.0000000 magnetization 
 augmentation part       -0.3474586 magnetization 

 Free energy of the ion-electron system (eV)
  ---------------------------------------------------
  alpha Z        PSCENC =        47.94900195
  Ewald energy   TEWEN  =     43620.90154586
  -Hartree energ DENC   =    -51124.34798008
  -exchange      EXHF   =         0.00000000
  -V(xc)+E(xc)   XCENC  =       461.71405666
  PAW double counting   =     86360.91556640   -86070.27967385
  entropy T*S    EENTRO =        -0.00000000
  eigenvalues    EBANDS =     -2110.74821151
  atomic energy  EATOM  =      8415.03548706
  ---------------------------------------------------
  free energy    TOTEN  =      -398.86020750 eV

  energy without entropy =     -398.86020750  energy(sigma->0) =     -398.86020750


--------------------------------------------------------------------------------------------------------




--------------------------------------- Iteration      1(   7)  ---------------------------------------


    POTLOK:  cpu time    4.2593: real time    4.2902
    SETDIJ:  cpu time    0.0540: real time    0.0542
    TRIAL :  cpu time    1.1634: real time    1.1741
    CORREC:  cpu time    4.7097: real time    4.7461
    CHARGE:  cpu time    0.1788: real time    0.1805
    --------------------------------------------
      LOOP:  cpu time   10.4359: real time   10.5213

 eigenvalue-minimisations  :     0
 total energy-change (2. order) :-0.1590445E+02  (-0.1843158E+01)
 number of electron     216.0000000 magnetization 
 augmentation part       -0.3915990 magnetization 

 Free energy of the ion-electron system (eV)
  ---------------------------------------------------
  alpha Z        PSCENC =        47.94900195
  Ewald energy   TEWEN  =     43620.90154586
  -Hartree energ DENC   =    -50609.95186965
  -exchange      EXHF   =         0.00000000
  -V(xc)+E(xc)   XCENC  =       444.65201130
  PAW double counting   =    101349.60377495  -101056.55653858
  entropy T*S    EENTRO =        -0.00000000
  eigenvalues    EBANDS =     -2626.39806540
  atomic energy  EATOM  =      8415.03548706
  ---------------------------------------------------
  free energy    TOTEN  =      -414.76465252 eV

  energy without entropy =     -414.76465252  energy(sigma->0) =     -414.76465252


--------------------------------------------------------------------------------------------------------




--------------------------------------- Iteration      1(   8)  ---------------------------------------


    POTLOK:  cpu time    4.2510: real time    4.2818
    SETDIJ:  cpu time    0.0559: real time    0.0560
    TRIAL :  cpu time    1.1604: real time    1.1716
    CORREC:  cpu time    4.7305: real time    4.7670
    CHARGE:  cpu time    0.1795: real time    0.1811
    --------------------------------------------
      LOOP:  cpu time   10.4137: real time   10.4986

 eigenvalue-minimisations  :     0
 total energy-change (2. order) :-0.1841630E+01  (-0.4961722E+00)
 number of electron     216.0000000 magnetization 
 augmentation part       -0.4081389 magnetization 

 Free energy of the ion-electron system (eV)
  ---------------------------------------------------
  alpha Z        PSCENC =        47.94900195
  Ewald energy   TEWEN  =     43620.90154586
  -Hartree energ DENC   =    -50581.19074655
  -exchange      EXHF   =         0.00000000
  -V(xc)+E(xc)   XCENC  =       444.11854584
  PAW double counting   =    105184.90693572  -104891.58179346
  entropy T*S    EENTRO =        -0.00000000
  eigenvalues    EBANDS =     -2656.74525890
  atomic energy  EATOM  =      8415.03548706
  ---------------------------------------------------
  free energy    TOTEN  =      -416.60628247 eV

  energy without entropy =     -416.60628247  energy(sigma->0) =     -416.60628247


--------------------------------------------------------------------------------------------------------




--------------------------------------- Iteration      1(   9)  ---------------------------------------


    POTLOK:  cpu time    4.2394: real time    4.2683
    SETDIJ:  cpu time    0.0541: real time    0.0543
    TRIAL :  cpu time    1.1584: real time    1.1688
    CORREC:  cpu time    4.7468: real time    4.7822
    CHARGE:  cpu time    0.1797: real time    0.1813
    --------------------------------------------
      LOOP:  cpu time   10.4110: real time   10.5132

 eigenvalue-minimisations  :     0
 total energy-change (2. order) :-0.4960751E+00  (-0.1800108E+00)
 number of electron     216.0000000 magnetization 
 augmentation part       -0.4158810 magnetization 

 Free energy of the ion-electron system (eV)
  ---------------------------------------------------
  alpha Z        PSCENC =        47.94900195
  Ewald energy   TEWEN  =     43620.90154586
  -Hartree energ DENC   =    -50597.75125730
  -exchange      EXHF   =         0.00000000
  -V(xc)+E(xc)   XCENC  =       444.31082427
  PAW double counting   =    107691.66106602  -107398.21951055
  entropy T*S    EENTRO =        -0.00000000
  eigenvalues    EBANDS =     -2640.98951488
  atomic energy  EATOM  =      8415.03548706
  ---------------------------------------------------
  free energy    TOTEN  =      -417.10235757 eV

  energy without entropy =     -417.10235757  energy(sigma->0) =     -417.10235757


--------------------------------------------------------------------------------------------------------




--------------------------------------- Iteration      1(  10)  ---------------------------------------


    POTLOK:  cpu time    4.2670: real time    4.3044
    SETDIJ:  cpu time    0.0541: real time    0.0543
    TRIAL :  cpu time    1.1590: real time    1.1695
    CORREC:  cpu time    4.7190: real time    4.7585
    CHARGE:  cpu time    0.1782: real time    0.1802
    --------------------------------------------
      LOOP:  cpu time   10.5236: real time   10.6163

 eigenvalue-minimisations  :     0
 total energy-change (2. order) :-0.1795240E+00  (-0.8319801E-01)
 number of electron     216.0000000 magnetization 
 augmentation part       -0.4157598 magnetization 

 Free energy of the ion-electron system (eV)
  ---------------------------------------------------
  alpha Z        PSCENC =        47.94900195
  Ewald energy   TEWEN  =     43620.90154586
  -Hartree energ DENC   =    -50596.02907525
  -exchange      EXHF   =         0.00000000
  -V(xc)+E(xc)   XCENC  =       444.16409787
  PAW double counting   =    108094.19254050  -107800.67174678
  entropy T*S    EENTRO =        -0.00000000
  eigenvalues    EBANDS =     -2642.82373281
  atomic energy  EATOM  =      8415.03548706
  ---------------------------------------------------
  free energy    TOTEN  =      -417.28188160 eV

  energy without entropy =     -417.28188160  energy(sigma->0) =     -417.28188160


--------------------------------------------------------------------------------------------------------




--------------------------------------- Iteration      1(  11)  ---------------------------------------


    POTLOK:  cpu time    4.2487: real time    4.2774
    SETDIJ:  cpu time    0.0541: real time    0.0543
    TRIAL :  cpu time    1.1584: real time    1.1690
    CORREC:  cpu time    4.7183: real time    4.7566
    CHARGE:  cpu time    0.1795: real time    0.1811
    --------------------------------------------
      LOOP:  cpu time   10.3730: real time   10.4680

 eigenvalue-minimisations  :     0
 total energy-change (2. order) :-0.8278468E-01  (-0.3480698E-01)
 number of electron     216.0000000 magnetization 
 augmentation part       -0.4149052 magnetization 

 Free energy of the ion-electron system (eV)
  ---------------------------------------------------
  alpha Z        PSCENC =        47.94900195
  Ewald energy   TEWEN  =     43620.90154586
  -Hartree energ DENC   =    -50589.40341735
  -exchange      EXHF   =         0.00000000
  -V(xc)+E(xc)   XCENC  =       444.06953887
  PAW double counting   =    107587.62390434  -107294.10732410
  entropy T*S    EENTRO =        -0.00000000
  eigenvalues    EBANDS =     -2649.43340291
  atomic energy  EATOM  =      8415.03548706
  ---------------------------------------------------
  free energy    TOTEN  =      -417.36466627 eV

  energy without entropy =     -417.36466627  energy(sigma->0) =     -417.36466627


--------------------------------------------------------------------------------------------------------




--------------------------------------- Iteration      1(  12)  ---------------------------------------


    POTLOK:  cpu time    4.2308: real time    4.2630
    SETDIJ:  cpu time    0.0542: real time    0.0544
    TRIAL :  cpu time    1.1575: real time    1.1696
    CORREC:  cpu time    4.6929: real time    4.7442
    CHARGE:  cpu time    0.1785: real time    0.1804
    --------------------------------------------
      LOOP:  cpu time   10.3796: real time   10.4795

 eigenvalue-minimisations  :     0
 total energy-change (2. order) :-0.3468599E-01  (-0.1116965E-01)
 number of electron     216.0000000 magnetization 
 augmentation part       -0.4146912 magnetization 

 Free energy of the ion-electron system (eV)
  ---------------------------------------------------
  alpha Z        PSCENC =        47.94900195
  Ewald energy   TEWEN  =     43620.90154586
  -Hartree energ DENC   =    -50586.21335721
  -exchange      EXHF   =         0.00000000
  -V(xc)+E(xc)   XCENC  =       443.99647342
  PAW double counting   =    107223.80958977  -106930.31102477
  entropy T*S    EENTRO =        -0.00000000
  eigenvalues    EBANDS =     -2652.56706834
  atomic energy  EATOM  =      8415.03548706
  ---------------------------------------------------
  free energy    TOTEN  =      -417.39935226 eV

  energy without entropy =     -417.39935226  energy(sigma->0) =     -417.39935226


--------------------------------------------------------------------------------------------------------




--------------------------------------- Iteration      1(  13)  ---------------------------------------


    POTLOK:  cpu time    4.2401: real time    4.2746
    SETDIJ:  cpu time    0.0541: real time    0.0543
    TRIAL :  cpu time    1.1558: real time    1.1688
    CORREC:  cpu time    4.7725: real time    4.8089
    CHARGE:  cpu time    0.1792: real time    0.1809
    --------------------------------------------
      LOOP:  cpu time   10.4200: real time   10.5078

 eigenvalue-minimisations  :     0
 total energy-change (2. order) :-0.1116209E-01  (-0.3173764E-02)
 number of electron     216.0000000 magnetization 
 augmentation part       -0.4140489 magnetization 

 Free energy of the ion-electron system (eV)
  ---------------------------------------------------
  alpha Z        PSCENC =        47.94900195
  Ewald energy   TEWEN  =     43620.90154586
  -Hartree energ DENC   =    -50586.12783191
  -exchange      EXHF   =         0.00000000
  -V(xc)+E(xc)   XCENC  =       443.98871237
  PAW double counting   =    107095.81315274  -106802.32415635
  entropy T*S    EENTRO =        -0.00000000
  eigenvalues    EBANDS =     -2652.64642608
  atomic energy  EATOM  =      8415.03548706
  ---------------------------------------------------
  free energy    TOTEN  =      -417.41051435 eV

  energy without entropy =     -417.41051435  energy(sigma->0) =     -417.41051435


--------------------------------------------------------------------------------------------------------




--------------------------------------- Iteration      1(  14)  ---------------------------------------


    POTLOK:  cpu time    4.2553: real time    4.2855
    SETDIJ:  cpu time    0.0542: real time    0.0544
    TRIAL :  cpu time    1.1580: real time    1.1683
    CORREC:  cpu time    4.7207: real time    4.7552
    CHARGE:  cpu time    0.1791: real time    0.1808
    --------------------------------------------
      LOOP:  cpu time   10.4075: real time   10.4858

 eigenvalue-minimisations  :     0
 total energy-change (2. order) :-0.3175763E-02  (-0.1123356E-02)
 number of electron     216.0000000 magnetization 
 augmentation part       -0.4137067 magnetization 

 Free energy of the ion-electron system (eV)
  ---------------------------------------------------
  alpha Z        PSCENC =        47.94900195
  Ewald energy   TEWEN  =     43620.90154586
  -Hartree energ DENC   =    -50586.13098302
  -exchange      EXHF   =         0.00000000
  -V(xc)+E(xc)   XCENC  =       443.98952834
  PAW double counting   =    107097.26486935  -106803.77995416
  entropy T*S    EENTRO =        -0.00000000
  eigenvalues    EBANDS =     -2652.64318550
  atomic energy  EATOM  =      8415.03548706
  ---------------------------------------------------
  free energy    TOTEN  =      -417.41369012 eV

  energy without entropy =     -417.41369012  energy(sigma->0) =     -417.41369012


--------------------------------------------------------------------------------------------------------




--------------------------------------- Iteration      1(  15)  ---------------------------------------


    POTLOK:  cpu time    4.2676: real time    4.2970
    SETDIJ:  cpu time    0.0541: real time    0.0543
    TRIAL :  cpu time    1.1700: real time    1.1846
    CORREC:  cpu time    4.7665: real time    4.8034
    CHARGE:  cpu time    0.1783: real time    0.1799
    --------------------------------------------
      LOOP:  cpu time   10.4634: real time   10.5483

 eigenvalue-minimisations  :     0
 total energy-change (2. order) :-0.1125774E-02  (-0.5585057E-03)
 number of electron     216.0000000 magnetization 
 augmentation part       -0.4132410 magnetization 

 Free energy of the ion-electron system (eV)
  ---------------------------------------------------
  alpha Z        PSCENC =        47.94900195
  Ewald energy   TEWEN  =     43620.90154586
  -Hartree energ DENC   =    -50585.75757964
  -exchange      EXHF   =         0.00000000
  -V(xc)+E(xc)   XCENC  =       443.97023883
  PAW double counting   =    107096.54300939  -106803.05655751
  entropy T*S    EENTRO =        -0.00000000
  eigenvalues    EBANDS =     -2652.99996183
  atomic energy  EATOM  =      8415.03548706
  ---------------------------------------------------
  free energy    TOTEN  =      -417.41481589 eV

  energy without entropy =     -417.41481589  energy(sigma->0) =     -417.41481589


--------------------------------------------------------------------------------------------------------




--------------------------------------- Iteration      1(  16)  ---------------------------------------


    POTLOK:  cpu time    4.2304: real time    4.2620
    SETDIJ:  cpu time    0.0542: real time    0.0544
    TRIAL :  cpu time    1.1571: real time    1.1681
    CORREC:  cpu time    4.7302: real time    4.7679
    CHARGE:  cpu time    0.1795: real time    0.1813
    --------------------------------------------
      LOOP:  cpu time   10.4018: real time   10.5103

 eigenvalue-minimisations  :     0
 total energy-change (2. order) :-0.5603835E-03  (-0.2919974E-03)
 number of electron     216.0000000 magnetization 
 augmentation part       -0.4131025 magnetization 

 Free energy of the ion-electron system (eV)
  ---------------------------------------------------
  alpha Z        PSCENC =        47.94900195
  Ewald energy   TEWEN  =     43620.90154586
  -Hartree energ DENC   =    -50586.18831467
  -exchange      EXHF   =         0.00000000
  -V(xc)+E(xc)   XCENC  =       443.98434967
  PAW double counting   =    107043.54198204  -106750.05745874
  entropy T*S    EENTRO =        -0.00000000
  eigenvalues    EBANDS =     -2652.58196945
  atomic energy  EATOM  =      8415.03548706
  ---------------------------------------------------
  free energy    TOTEN  =      -417.41537627 eV

  energy without entropy =     -417.41537627  energy(sigma->0) =     -417.41537627


--------------------------------------------------------------------------------------------------------




--------------------------------------- Iteration      1(  17)  ---------------------------------------


    POTLOK:  cpu time    4.2464: real time    4.2772
    SETDIJ:  cpu time    0.0543: real time    0.0545
    TRIAL :  cpu time    1.1564: real time    1.1686
    CORREC:  cpu time    4.7117: real time    4.7510
    CHARGE:  cpu time    0.1787: real time    0.1805
    --------------------------------------------
      LOOP:  cpu time   10.3856: real time   10.4728

 eigenvalue-minimisations  :     0
 total energy-change (2. order) :-0.2932919E-03  (-0.1194945E-03)
 number of electron     216.0000000 magnetization 
 augmentation part       -0.4131940 magnetization 

 Free energy of the ion-electron system (eV)
  ---------------------------------------------------
  alpha Z        PSCENC =        47.94900195
  Ewald energy   TEWEN  =     43620.90154586
  -Hartree energ DENC   =    -50586.37679862
  -exchange      EXHF   =         0.00000000
  -V(xc)+E(xc)   XCENC  =       443.98728008
  PAW double counting   =    106988.94604658  -106695.46096588
  entropy T*S    EENTRO =        -0.00000000
  eigenvalues    EBANDS =     -2652.39726660
  atomic energy  EATOM  =      8415.03548706
  ---------------------------------------------------
  free energy    TOTEN  =      -417.41566957 eV

  energy without entropy =     -417.41566957  energy(sigma->0) =     -417.41566957


--------------------------------------------------------------------------------------------------------




--------------------------------------- Iteration      1(  18)  ---------------------------------------


    POTLOK:  cpu time    4.2822: real time    4.3130
    SETDIJ:  cpu time    0.0542: real time    0.0544
    TRIAL :  cpu time    1.1582: real time    1.1685
    CORREC:  cpu time    4.7249: real time    4.7730
    CHARGE:  cpu time    0.1793: real time    0.1809
    --------------------------------------------
      LOOP:  cpu time   10.4478: real time   10.5584

 eigenvalue-minimisations  :     0
 total energy-change (2. order) :-0.1194421E-03  (-0.4551016E-04)
 number of electron     216.0000000 magnetization 
 augmentation part       -0.4133722 magnetization 

 Free energy of the ion-electron system (eV)
  ---------------------------------------------------
  alpha Z        PSCENC =        47.94900195
  Ewald energy   TEWEN  =     43620.90154586
  -Hartree energ DENC   =    -50586.39979771
  -exchange      EXHF   =         0.00000000
  -V(xc)+E(xc)   XCENC  =       443.98854471
  PAW double counting   =    106979.55892934  -106686.07321764
  entropy T*S    EENTRO =        -0.00000000
  eigenvalues    EBANDS =     -2652.37628259
  atomic energy  EATOM  =      8415.03548706
  ---------------------------------------------------
  free energy    TOTEN  =      -417.41578901 eV

  energy without entropy =     -417.41578901  energy(sigma->0) =     -417.41578901


--------------------------------------------------------------------------------------------------------




--------------------------------------- Iteration      1(  19)  ---------------------------------------


    POTLOK:  cpu time    4.2389: real time    4.2695
    SETDIJ:  cpu time    0.0541: real time    0.0543
    TRIAL :  cpu time    1.1575: real time    1.1682
    CORREC:  cpu time    4.7143: real time    4.7503
    CHARGE:  cpu time    0.1790: real time    0.1807
    --------------------------------------------
      LOOP:  cpu time   10.3732: real time   10.4922

 eigenvalue-minimisations  :     0
 total energy-change (2. order) :-0.4506002E-04  (-0.1808268E-04)
 number of electron     216.0000000 magnetization 
 augmentation part       -0.4134710 magnetization 

 Free energy of the ion-electron system (eV)
  ---------------------------------------------------
  alpha Z        PSCENC =        47.94900195
  Ewald energy   TEWEN  =     43620.90154586
  -Hartree energ DENC   =    -50586.39963330
  -exchange      EXHF   =         0.00000000
  -V(xc)+E(xc)   XCENC  =       443.98839785
  PAW double counting   =    106992.70072362  -106699.21440114
  entropy T*S    EENTRO =        -0.00000000
  eigenvalues    EBANDS =     -2652.37695598
  atomic energy  EATOM  =      8415.03548706
  ---------------------------------------------------
  free energy    TOTEN  =      -417.41583407 eV

  energy without entropy =     -417.41583407  energy(sigma->0) =     -417.41583407


--------------------------------------------------------------------------------------------------------




--------------------------------------- Iteration      1(  20)  ---------------------------------------


    POTLOK:  cpu time    4.2415: real time    4.2721
    SETDIJ:  cpu time    0.0542: real time    0.0544
    TRIAL :  cpu time    1.1585: real time    1.1690
    CORREC:  cpu time    4.7170: real time    4.7568
    CHARGE:  cpu time    0.1789: real time    0.1808
    --------------------------------------------
      LOOP:  cpu time   10.3738: real time   10.4700

 eigenvalue-minimisations  :     0
 total energy-change (2. order) :-0.1768216E-04  (-0.8827628E-05)
 number of electron     216.0000000 magnetization 
 augmentation part       -0.4134991 magnetization 

 Free energy of the ion-electron system (eV)
  ---------------------------------------------------
  alpha Z        PSCENC =        47.94900195
  Ewald energy   TEWEN  =     43620.90154586
  -Hartree energ DENC   =    -50586.41869886
  -exchange      EXHF   =         0.00000000
  -V(xc)+E(xc)   XCENC  =       443.98882978
  PAW double counting   =    107004.03570247  -106710.54928202
  entropy T*S    EENTRO =        -0.00000000
  eigenvalues    EBANDS =     -2652.35843799
  atomic energy  EATOM  =      8415.03548706
  ---------------------------------------------------
  free energy    TOTEN  =      -417.41585175 eV

  energy without entropy =     -417.41585175  energy(sigma->0) =     -417.41585175


--------------------------------------------------------------------------------------------------------




--------------------------------------- Iteration      1(  21)  ---------------------------------------


    POTLOK:  cpu time    4.2632: real time    4.2955
    SETDIJ:  cpu time    0.0541: real time    0.0543
    TRIAL :  cpu time    1.1764: real time    1.1885
    CORREC:  cpu time    4.7165: real time    4.7604
    CHARGE:  cpu time    0.1790: real time    0.1807
    --------------------------------------------
      LOOP:  cpu time   10.4331: real time   10.5531

 eigenvalue-minimisations  :     0
 total energy-change (2. order) :-0.8715884E-05  (-0.5203663E-05)
 number of electron     216.0000000 magnetization 
 augmentation part       -0.4134885 magnetization 

 Free energy of the ion-electron system (eV)
  ---------------------------------------------------
  alpha Z        PSCENC =        47.94900195
  Ewald energy   TEWEN  =     43620.90154586
  -Hartree energ DENC   =    -50586.40235060
  -exchange      EXHF   =         0.00000000
  -V(xc)+E(xc)   XCENC  =       443.98828347
  PAW double counting   =    107008.60870013  -106715.12234560
  entropy T*S    EENTRO =        -0.00000000
  eigenvalues    EBANDS =     -2652.37418274
  atomic energy  EATOM  =      8415.03548706
  ---------------------------------------------------
  free energy    TOTEN  =      -417.41586047 eV

  energy without entropy =     -417.41586047  energy(sigma->0) =     -417.41586047


--------------------------------------------------------------------------------------------------------




--------------------------------------- Iteration      1(  22)  ---------------------------------------


    POTLOK:  cpu time    4.2170: real time    4.2469
    SETDIJ:  cpu time    0.0543: real time    0.0544
    TRIAL :  cpu time    1.1578: real time    1.1684
    CORREC:  cpu time    4.7105: real time    4.7456
    CHARGE:  cpu time    0.1793: real time    0.1810
    --------------------------------------------
      LOOP:  cpu time   10.3612: real time   10.4392

 eigenvalue-minimisations  :     0
 total energy-change (2. order) :-0.5190668E-05  (-0.2453105E-05)
 number of electron     216.0000000 magnetization 
 augmentation part       -0.4134642 magnetization 

 Free energy of the ion-electron system (eV)
  ---------------------------------------------------
  alpha Z        PSCENC =        47.94900195
  Ewald energy   TEWEN  =     43620.90154586
  -Hartree energ DENC   =    -50586.37583691
  -exchange      EXHF   =         0.00000000
  -V(xc)+E(xc)   XCENC  =       443.98744368
  PAW double counting   =    107008.35318290  -106714.86691985
  entropy T*S    EENTRO =        -0.00000000
  eigenvalues    EBANDS =     -2652.39977035
  atomic energy  EATOM  =      8415.03548706
  ---------------------------------------------------
  free energy    TOTEN  =      -417.41586566 eV

  energy without entropy =     -417.41586566  energy(sigma->0) =     -417.41586566


--------------------------------------------------------------------------------------------------------




--------------------------------------- Iteration      1(  23)  ---------------------------------------


    POTLOK:  cpu time    4.2581: real time    4.2883
    SETDIJ:  cpu time    0.0542: real time    0.0544
    TRIAL :  cpu time    1.1615: real time    1.1747
    CORREC:  cpu time    4.9077: real time    4.9517
    CHARGE:  cpu time    0.1789: real time    0.1805
    --------------------------------------------
      LOOP:  cpu time   10.5972: real time   10.6900

 eigenvalue-minimisations  :     0
 total energy-change (2. order) :-0.2480854E-05  (-0.8584739E-06)
 number of electron     216.0000000 magnetization 
 augmentation part       -0.4134583 magnetization 

 Free energy of the ion-electron system (eV)
  ---------------------------------------------------
  alpha Z        PSCENC =        47.94900195
  Ewald energy   TEWEN  =     43620.90154586
  -Hartree energ DENC   =    -50586.37511332
  -exchange      EXHF   =         0.00000000
  -V(xc)+E(xc)   XCENC  =       443.98760376
  PAW double counting   =    107006.56024595  -106713.07409283
  entropy T*S    EENTRO =        -0.00000000
  eigenvalues    EBANDS =     -2652.40054657
  atomic energy  EATOM  =      8415.03548706
  ---------------------------------------------------
  free energy    TOTEN  =      -417.41586814 eV

  energy without entropy =     -417.41586814  energy(sigma->0) =     -417.41586814


--------------------------------------------------------------------------------------------------------




--------------------------------------- Iteration      1(  24)  ---------------------------------------


    POTLOK:  cpu time    4.2388: real time    4.2733
    SETDIJ:  cpu time    0.0542: real time    0.0544
    TRIAL :  cpu time    1.1576: real time    1.1699
    CORREC:  cpu time    4.7220: real time    4.7576
    CHARGE:  cpu time    0.1785: real time    0.1803
    --------------------------------------------
      LOOP:  cpu time   10.4062: real time   10.4940

 eigenvalue-minimisations  :     0
 total energy-change (2. order) :-0.8720672E-06  (-0.3725131E-06)
 number of electron     216.0000000 magnetization 
 augmentation part       -0.4134557 magnetization 

 Free energy of the ion-electron system (eV)
  ---------------------------------------------------
  alpha Z        PSCENC =        47.94900195
  Ewald energy   TEWEN  =     43620.90154586
  -Hartree energ DENC   =    -50586.37002965
  -exchange      EXHF   =         0.00000000
  -V(xc)+E(xc)   XCENC  =       443.98753284
  PAW double counting   =    107005.93197085  -106712.44579367
  entropy T*S    EENTRO =        -0.00000000
  eigenvalues    EBANDS =     -2652.40558425
  atomic energy  EATOM  =      8415.03548706
  ---------------------------------------------------
  free energy    TOTEN  =      -417.41586901 eV

  energy without entropy =     -417.41586901  energy(sigma->0) =     -417.41586901


--------------------------------------------------------------------------------------------------------




--------------------------------------- Iteration      1(  25)  ---------------------------------------


    POTLOK:  cpu time    4.2310: real time    4.2610
    SETDIJ:  cpu time    0.0541: real time    0.0543
    TRIAL :  cpu time    1.1715: real time    1.1841
    CORREC:  cpu time    4.7054: real time    4.7434
    CHARGE:  cpu time    0.1788: real time    0.1805
    --------------------------------------------
      LOOP:  cpu time   10.4234: real time   10.5108

 eigenvalue-minimisations  :     0
 total energy-change (2. order) :-0.3817258E-06  (-0.1641635E-06)
 number of electron     216.0000000 magnetization 
 augmentation part       -0.4134537 magnetization 

 Free energy of the ion-electron system (eV)
  ---------------------------------------------------
  alpha Z        PSCENC =        47.94900195
  Ewald energy   TEWEN  =     43620.90154586
  -Hartree energ DENC   =    -50586.37003159
  -exchange      EXHF   =         0.00000000
  -V(xc)+E(xc)   XCENC  =       443.98759869
  PAW double counting   =    107005.80289430  -106712.31669555
  entropy T*S    EENTRO =        -0.00000000
  eigenvalues    EBANDS =     -2652.40567012
  atomic energy  EATOM  =      8415.03548706
  ---------------------------------------------------
  free energy    TOTEN  =      -417.41586939 eV

  energy without entropy =     -417.41586939  energy(sigma->0) =     -417.41586939


--------------------------------------------------------------------------------------------------------




--------------------------------------- Iteration      1(  26)  ---------------------------------------


    POTLOK:  cpu time    4.2527: real time    4.2812
    SETDIJ:  cpu time    0.0540: real time    0.0542
    TRIAL :  cpu time    1.1577: real time    1.1683
    CORREC:  cpu time    4.7329: real time    4.7691
    CHARGE:  cpu time    0.1796: real time    0.1812
    --------------------------------------------
      LOOP:  cpu time   10.4351: real time   10.5135

 eigenvalue-minimisations  :     0
 total energy-change (2. order) :-0.1704175E-06  (-0.7516221E-07)
 number of electron     216.0000000 magnetization 
 augmentation part       -0.4134513 magnetization 

 Free energy of the ion-electron system (eV)
  ---------------------------------------------------
  alpha Z        PSCENC =        47.94900195
  Ewald energy   TEWEN  =     43620.90154586
  -Hartree energ DENC   =    -50586.37198753
  -exchange      EXHF   =         0.00000000
  -V(xc)+E(xc)   XCENC  =       443.98762824
  PAW double counting   =    107005.70686564  -106712.22065307
  entropy T*S    EENTRO =        -0.00000000
  eigenvalues    EBANDS =     -2652.40375772
  atomic energy  EATOM  =      8415.03548706
  ---------------------------------------------------
  free energy    TOTEN  =      -417.41586956 eV

  energy without entropy =     -417.41586956  energy(sigma->0) =     -417.41586956


--------------------------------------------------------------------------------------------------------




--------------------------------------- Iteration      1(  27)  ---------------------------------------


    POTLOK:  cpu time    4.2475: real time    4.2783
    SETDIJ:  cpu time    0.0542: real time    0.0543
    TRIAL :  cpu time    1.1599: real time    1.1704
    CORREC:  cpu time    4.7023: real time    4.7377
    EDDIAG:  cpu time    0.4357: real time    0.4403
    CHARGE:  cpu time    0.1784: real time    0.1804
    --------------------------------------------
      LOOP:  cpu time   10.8290: real time   10.9184

 eigenvalue-minimisations  :     0
 total energy-change (2. order) :-0.7708149E-07  (-0.3929853E-07)
 number of electron     216.0000000 magnetization 
 augmentation part       -0.4134499 magnetization 

 Free energy of the ion-electron system (eV)
  ---------------------------------------------------
  alpha Z        PSCENC =        47.94900195
  Ewald energy   TEWEN  =     43620.90154586
  -Hartree energ DENC   =    -50586.37338341
  -exchange      EXHF   =         0.00000000
  -V(xc)+E(xc)   XCENC  =       443.98765793
  PAW double counting   =    107005.67475900  -106712.18855145
  entropy T*S    EENTRO =        -0.00000000
  eigenvalues    EBANDS =     -2652.40238658
  atomic energy  EATOM  =      8415.03548706
  ---------------------------------------------------
  free energy    TOTEN  =      -417.41586964 eV

  energy without entropy =     -417.41586964  energy(sigma->0) =     -417.41586964


--------------------------------------------------------------------------------------------------------


  average scaling for gradient   0.9694


 average (electrostatic) potential at core
  the test charge radii are     0.5770  0.5955
  (the norm of the test charge is              1.0000)
       1 -86.0254       2 -86.0246       3 -86.0263       4 -86.0276       5 -86.0233
       6 -86.0229       7 -86.0261       8 -86.0242       9 -86.0244      10 -86.0258
[...]
      21 -86.0228      22 -86.0225      23 -86.0284      24 -86.0282      25 -86.0225
      26 -86.0231      27 -86.0246      28 -86.0261      29 -86.0228      30 -86.0226
      31 -86.0269      32 -86.0257      33 -86.0235      34 -86.0230      35 -86.0231
      36 -86.0235      37 -86.0245      38 -86.0250      39 -86.0250      40 -86.0248
      41 -86.0249      42 -86.0253      43 -86.0240      44 -86.0255      45 -86.0227
      46 -86.0231      47 -86.0232      48 -86.0228      49 -86.0248      50 -86.0241
      51 -89.9203      52-120.4379      53-120.4376
 
 
 
 E-fermi :  -4.3987     XC(G=0):  -2.2721     alpha+bet : -1.6890

 Fermi energy:        -4.3986580982

 k-point     1 :       0.0000    0.0000    0.0000
  band No.  band energies     occupation 
      1     -27.6491      2.00000
      2     -26.6557      2.00000
      3     -22.4390      2.00000
      4     -21.5022      2.00000
      5     -21.5017      2.00000
      6     -21.5015      2.00000
      7     -21.5004      2.00000
      8     -21.5001      2.00000
      9     -21.5000      2.00000
     10     -19.6631      2.00000
     11     -19.6630      2.00000
     12     -19.6627      2.00000
     13     -19.6621      2.00000
     14     -19.6619      2.00000
     15     -19.6617      2.00000
     16     -18.7680      2.00000
     17     -18.7678      2.00000
     18     -18.7675      2.00000
     19     -18.7671      2.00000
     20     -18.7666      2.00000
     21     -18.7664      2.00000
     22     -16.6073      2.00000
     23     -16.6069      2.00000
     24     -16.6061      2.00000
     25     -16.6059      2.00000
     26     -16.6054      2.00000
     27     -16.6053      2.00000
     28     -15.6282      2.00000
     29     -15.6282      2.00000
     30     -15.6275      2.00000
     31     -15.6274      2.00000
     32     -15.6269      2.00000
     33     -15.6268      2.00000
     34     -14.2795      2.00000
     35     -14.2793      2.00000
     36     -14.2787      2.00000
     37     -14.2785      2.00000
     38     -14.2785      2.00000
     39     -14.2783      2.00000
     40     -12.4919      2.00000
     41     -11.9034      2.00000
     42     -11.9031      2.00000
     43     -11.9027      2.00000
     44     -11.9026      2.00000
     45     -11.9016      2.00000
     46     -11.9013      2.00000
     47     -11.8105      2.00000
     48     -11.8105      2.00000
     49     -11.8099      2.00000
     50     -11.8099      2.00000
     51     -11.8094      2.00000
     52     -11.8092      2.00000
     53     -11.3343      2.00000
     54     -11.2721      2.00000
     55     -11.2715      2.00000
     56     -10.5961      2.00000
     57     -10.4404      2.00000
     58     -10.4403      2.00000
     59     -10.4388      2.00000
     60     -10.4384      2.00000
     61     -10.4383      2.00000
     62     -10.4382      2.00000
     63      -9.4803      2.00000
     64      -9.4797      2.00000
     65      -9.4794      2.00000
     66      -9.4781      2.00000
     67      -9.4771      2.00000
     68      -9.4770      2.00000
     69      -9.1758      2.00000
     70      -9.1758      2.00000
     71      -9.1752      2.00000
     72      -9.1749      2.00000
     73      -9.1744      2.00000
     74      -9.1743      2.00000
     75      -9.1167      2.00000
     76      -9.1165      2.00000
     77      -9.1161      2.00000
     78      -9.1160      2.00000
     79      -9.1156      2.00000
     80      -9.1148      2.00000
     81      -7.7352      2.00000
     82      -7.7346      2.00000
     83      -7.5271      2.00000
     84      -7.5256      2.00000
     85      -7.5253      2.00000
     86      -7.5249      2.00000
     87      -7.5237      2.00000
     88      -7.5237      2.00000
     89      -7.3489      2.00000
     90      -7.3483      2.00000
     91      -7.3482      2.00000
     92      -7.3482      2.00000
     93      -7.3480      2.00000
     94      -7.3479      2.00000
     95      -6.4520      2.00000
     96      -6.4513      2.00000
     97      -6.4510      2.00000
     98      -6.4506      2.00000
     99      -6.4505      2.00000
    100      -6.4504      2.00000
    101      -6.0473      2.00000
    102      -6.0451      2.00000
    103      -4.4674      2.00000
    104      -4.4672      2.00000
    105      -4.4668      2.00000
    106      -4.4666      2.00000
    107      -4.4653      2.00000
    108      -4.4651      2.00000
    109      -1.6672      0.00000
    110      -1.6670      0.00000
    111      -1.6661      0.00000
    112      -1.6658      0.00000
    113      -1.6655      0.00000
    114      -1.6653      0.00000
    115      -0.3057      0.00000
    116       0.1848      0.00000
    117       0.1937      0.00000
    118       0.1942      0.00000
    119       0.1948      0.00000
    120       0.1953      0.00000
    121       0.1954      0.00000
    122       0.1974      0.00000
    123       0.8057      0.00000
    124       1.0163      0.00000
    125       1.0178      0.00000
    126       1.0625      0.00000
    127       1.1206      0.00000
    128       1.1268      0.00000
    129       1.1343      0.00000
    130       1.1509      0.00000
    131       1.3307      0.00000
    132       1.4303      0.00000
    133       1.6351      0.00000
    134       1.7181      0.00000
    135       1.8859      0.00000
    136       1.8966      0.00000


--------------------------------------------------------------------------------------------------------


 soft charge-density along one line, spin component           1
         0         1         2         3         4         5         6         7         8         9
 total charge-density along one line
 
 pseudopotential strength for first ion, spin component:           1
 12.721  21.408   0.000   0.000   0.000   0.000   0.000   0.000
 21.408  36.024   0.000   0.000   0.000   0.000   0.000   0.000
  0.000   0.000  -3.196  -0.000   0.000  -5.729  -0.000   0.000
  0.000   0.000  -0.000  -3.199  -0.000  -0.000  -5.733  -0.000
  0.000   0.000   0.000  -0.000  -3.196   0.000  -0.000  -5.729
  0.000   0.000  -5.729  -0.000   0.000 -10.246  -0.000   0.000
  0.000   0.000  -0.000  -5.733  -0.000  -0.000 -10.253  -0.000
  0.000   0.000   0.000  -0.000  -5.729   0.000  -0.000 -10.246
 total augmentation occupancy for first ion, spin component:           1
  7.653  -2.660  -0.000  -0.002  -0.000   0.000   0.001   0.000
 -2.660   0.962   0.000   0.001   0.000  -0.000  -0.000  -0.000
 -0.000   0.000   7.069  -0.008   0.000  -2.370   0.003  -0.000
 -0.002   0.001  -0.008   3.114  -0.000   0.003  -0.813   0.000
 -0.000   0.000   0.000  -0.000   7.068  -0.000   0.000  -2.370
  0.000  -0.000  -2.370   0.003  -0.000   0.809  -0.001   0.000
  0.001  -0.000   0.003  -0.813   0.000  -0.001   0.219  -0.000
  0.000  -0.000  -0.000   0.000  -2.370   0.000  -0.000   0.809


------------------------ aborting loop because EDIFF is reached ----------------------------------------


    FORLOC:  cpu time    0.0673: real time    0.0678
    FORNL :  cpu time    0.8422: real time    0.8466
    FORCOR:  cpu time    4.2988: real time    4.3298
    OFIELD:  cpu time    0.0015: real time    0.0015

 VOLUME and BASIS-vectors are now :
 -----------------------------------------------------------------------------
  energy-cutoff  :     1000.00
  volume of cell :     3288.85
      direct lattice vectors                 reciprocal lattice vectors
    12.325000000  0.000000000  0.000000000     0.081135903  0.046843835  0.000000000
    -6.162500000 10.673763102  0.000000000     0.000000000  0.093687670  0.000000000
     0.000000000  0.000000000 25.000000000     0.000000000  0.000000000  0.040000000

  length of vectors
    12.325000000 12.325000000 25.000000000     0.093687670  0.093687670  0.040000000


 FORCES acting on ions:
    Electron-Ion                     Ewald-Force                    Non-Local-Force
 -----------------------------------------------------------------------------------------------
   0.263E+01 0.228E+01 0.215E+02   -.263E+01 -.228E+01 -.215E+02   0.661E-02 -.851E-03 0.714E-02
   0.375E+01 0.184E+01 0.239E+02   -.376E+01 -.184E+01 -.239E+02   0.648E-02 -.385E-02 -.507E-02
   0.157E+01 0.424E+01 0.252E+02   -.157E+01 -.424E+01 -.252E+02   -.381E-03 0.148E-01 0.327E-02
   0.203E+01 0.293E+01 0.301E+02   -.203E+01 -.294E+01 -.301E+02   0.141E-01 0.197E-02 -.716E-02
   0.281E+01 0.674E+00 0.219E+02   -.281E+01 -.672E+00 -.219E+02   0.130E-02 -.684E-02 0.179E-02
   0.287E+01 -.586E+00 0.221E+02   -.288E+01 0.589E+00 -.221E+02   -.620E-02 0.261E-02 -.525E-02
   0.389E+01 0.143E+01 0.290E+02   -.389E+01 -.143E+01 -.290E+02   0.160E-01 -.209E-01 -.297E-02
   0.379E+01 -.135E+01 0.302E+02   -.380E+01 0.135E+01 -.302E+02   -.279E-02 -.796E-02 -.560E-02
   -.190E+01 0.385E+01 0.255E+02   0.190E+01 -.386E+01 -.255E+02   -.304E-02 -.991E-02 -.497E-02
   -.276E+01 0.233E+01 0.298E+02   0.277E+01 -.233E+01 -.298E+02   -.301E-01 0.178E-01 0.562E-02
   0.737E+00 -.746E+00 0.201E+02   -.733E+00 0.745E+00 -.201E+02   0.283E-02 -.261E-02 -.170E-02
   0.653E+00 -.550E+00 0.195E+02   -.651E+00 0.549E+00 -.195E+02   -.830E-02 0.390E-02 0.452E-02
   0.146E+01 -.317E+01 0.319E+02   -.147E+01 0.317E+01 -.319E+02   0.307E-01 -.109E-01 0.552E-03
   0.855E+00 -.428E+01 0.265E+02   -.863E+00 0.429E+01 -.265E+02   0.663E-02 0.385E-02 -.162E-01
   -.255E+01 0.156E+01 0.213E+02   0.255E+01 -.156E+01 -.213E+02   0.712E-02 -.347E-02 0.477E-02
   -.342E+01 0.102E+01 0.223E+02   0.342E+01 -.102E+01 -.223E+02   -.380E-02 0.678E-02 -.690E-02
   -.465E+00 -.183E+00 0.190E+02   0.470E+00 0.180E+00 -.190E+02   -.199E-02 0.975E-03 0.165E-02
   0.208E+00 0.160E+01 0.194E+02   -.207E+00 -.160E+01 -.194E+02   -.410E-02 0.245E-02 0.924E-02
   -.662E+00 -.408E+01 0.238E+02   0.660E+00 0.408E+01 -.238E+02   0.794E-02 -.360E-02 0.124E-02
   -.365E+00 -.238E+01 0.205E+02   0.360E+00 0.238E+01 -.205E+02   0.155E-02 -.243E-02 -.988E-03
   0.375E+01 -.165E+01 0.249E+02   -.375E+01 0.166E+01 -.249E+02   0.533E-03 -.400E-02 -.194E-01
   0.256E+01 -.211E+01 0.228E+02   -.256E+01 0.211E+01 -.228E+02   -.640E-02 0.507E-02 -.521E-02
   -.712E+00 0.133E+01 0.333E+02   0.710E+00 -.133E+01 -.333E+02   -.118E-01 0.120E-01 0.996E-02
   -.955E+00 -.208E+01 0.329E+02   0.955E+00 0.208E+01 -.329E+02   0.131E-01 -.171E-01 -.207E-02
   0.137E+01 -.531E+00 0.202E+02   -.137E+01 0.529E+00 -.202E+02   0.270E-02 -.223E-02 -.522E-02
   0.330E+00 0.120E+01 0.201E+02   -.328E+00 -.120E+01 -.201E+02   -.664E-02 0.434E-02 0.389E-02
   -.427E+01 0.582E+00 0.264E+02   0.428E+01 -.586E+00 -.264E+02   0.797E-02 0.960E-02 -.177E-02
   -.410E+01 -.162E+01 0.255E+02   0.410E+01 0.162E+01 -.255E+02   -.121E-01 0.101E-01 0.330E-02
   0.150E+01 -.300E+01 0.232E+02   -.150E+01 0.300E+01 -.232E+02   0.654E-02 0.131E-02 -.918E-02
   0.129E+00 -.129E+01 0.208E+02   -.132E+00 0.130E+01 -.208E+02   -.402E-02 0.235E-02 -.428E-02
   -.298E+01 -.309E+01 0.278E+02   0.298E+01 0.309E+01 -.278E+02   -.143E-01 -.952E-02 -.693E-02
   -.208E+01 -.387E+01 0.240E+02   0.208E+01 0.388E+01 -.240E+02   0.675E-03 -.378E-02 0.487E-02
   0.180E+00 0.732E+00 0.194E+02   -.182E+00 -.732E+00 -.194E+02   0.642E-02 -.525E-02 0.598E-02
   0.466E+00 0.707E+00 0.200E+02   -.469E+00 -.705E+00 -.200E+02   -.173E-02 0.421E-02 -.253E-02
   -.178E+01 0.297E+00 0.206E+02   0.178E+01 -.298E+00 -.206E+02   0.369E-02 -.203E-02 0.416E-02
   -.158E+01 -.681E+00 0.204E+02   0.158E+01 0.680E+00 -.204E+02   -.573E-02 0.314E-02 0.252E-02
   -.304E+01 -.159E+01 0.216E+02   0.304E+01 0.159E+01 -.216E+02   -.379E-02 0.127E-02 0.360E-02
   -.196E+01 -.156E+01 0.202E+02   0.196E+01 0.156E+01 -.202E+02   -.556E-02 0.133E-02 0.941E-02
   -.178E+01 -.228E+01 0.208E+02   0.179E+01 0.229E+01 -.208E+02   -.425E-02 -.615E-03 0.598E-02
   -.271E+00 -.600E+00 0.196E+02   0.272E+00 0.601E+00 -.196E+02   0.224E-02 0.714E-04 0.791E-02
   0.670E+00 0.168E+01 0.198E+02   -.670E+00 -.168E+01 -.198E+02   -.429E-02 0.287E-02 0.761E-02
   0.205E+01 0.319E+01 0.219E+02   -.205E+01 -.319E+01 -.219E+02   0.854E-03 0.419E-03 0.955E-02
   0.194E+00 0.281E+01 0.205E+02   -.189E+00 -.281E+01 -.205E+02   -.187E-02 0.264E-02 0.184E-02
   -.524E-01 0.428E+01 0.238E+02   0.562E-01 -.429E+01 -.238E+02   -.102E-01 0.423E-02 0.640E-02
   -.530E+00 0.101E+01 0.206E+02   0.533E+00 -.101E+01 -.206E+02   0.355E-02 -.262E-02 -.675E-03
   -.203E+01 0.250E+01 0.221E+02   0.203E+01 -.250E+01 -.221E+02   -.807E-02 0.153E-02 -.363E-02
   -.479E+00 -.120E+01 0.201E+02   0.477E+00 0.120E+01 -.201E+02   0.771E-02 -.186E-02 0.446E-02
   -.108E+01 0.401E+00 0.195E+02   0.108E+01 -.400E+00 -.195E+02   -.275E-02 0.306E-02 -.457E-02
   0.115E+00 -.748E+00 0.195E+02   -.117E+00 0.749E+00 -.195E+02   0.523E-02 -.361E-02 0.585E-02
   0.118E+01 0.846E+00 0.195E+02   -.119E+01 -.843E+00 -.195E+02   0.154E-02 0.134E-02 0.317E-02
   0.128E-01 0.105E-01 -.288E+03   -.155E-01 -.778E-02 0.288E+03   -.307E-02 0.209E-02 -.681E-02
   -.229E+03 0.156E+03 -.445E+03   0.279E+03 -.190E+03 0.448E+03   -.512E+02 0.348E+02 -.345E+01
   0.229E+03 -.156E+03 -.423E+03   -.279E+03 0.190E+03 0.420E+03   0.512E+02 -.348E+02 0.307E+01
 -----------------------------------------------------------------------------------------------
   -.588E-02 0.128E-01 0.362E+00   0.114E-12 -.114E-12 0.171E-12   0.583E-02 -.128E-01 -.364E+00
 
 
 POSITION                                       TOTAL-FORCE (eV/Angst)
 -----------------------------------------------------------------------------------
     11.98348      0.00342      0.01417         0.003028     -0.001521     -0.000867
     -0.34154      1.42665      0.01100        -0.001349     -0.000081     -0.002932
      2.12355      0.00315      0.01249        -0.001586      0.009873     -0.005610
      2.12326      1.42653      0.00641         0.012551      0.000944     -0.006781
     10.75099      2.13819      0.01213         0.000158     -0.005391      0.000039
     -1.57382      3.56123      0.01110        -0.008661      0.004866     -0.001277
      0.89078      2.13854      0.00548         0.008768     -0.018491      0.003284
      0.89099      3.56147      0.00181        -0.012635     -0.001974      0.012409
      4.58864      0.00346      0.01135         0.004112     -0.016477     -0.002924
      4.58894      1.42623      0.00646        -0.022495      0.012587      0.014747
      9.51854      4.27281      0.01369         0.006704     -0.003195      0.000305
     -2.80632      5.69591      0.01434        -0.006346      0.003320      0.000782
      2.12300      4.27302      0.00000         0.024000     -0.004395      0.021202
      2.12335      5.69594      0.00581        -0.000982      0.009798     -0.002039
      7.05344      0.00333      0.01399         0.009179     -0.005173     -0.000305
      7.05353      1.42635      0.01368        -0.001407      0.004646     -0.003419
      8.28610      6.40752      0.01601         0.003216     -0.001547     -0.000664
     -4.03885      7.83070      0.01636        -0.002062      0.000853     -0.000080
      3.35586      6.40753      0.01007         0.005076      0.000642     -0.001059
      3.35599      7.83072      0.01320        -0.003386      0.000322     -0.000473
     -0.34146      4.27290      0.00723        -0.002220     -0.001137     -0.004036
     -0.34138      5.69591      0.00946        -0.009017      0.006314     -0.000964
      3.35624      2.13791      0.00222        -0.013026      0.011487      0.017527
      3.35573      3.56155      0.00139         0.013223     -0.015225      0.010001
     -1.57395      6.40758      0.01311         0.005649     -0.004035     -0.000461
     -1.57385      7.83068      0.01438        -0.004648      0.003681      0.000096
      5.82093      2.13784      0.01033         0.016793      0.004913     -0.002300
      5.82114      3.56097      0.01156        -0.005738      0.008137     -0.003060
      0.89092      6.40755      0.00907         0.004215      0.002298     -0.002000
      0.89106      7.83068      0.01235        -0.006920      0.003705      0.000493
      4.58871      4.27293      0.00850        -0.012095     -0.006115     -0.009622
      4.58852      5.69606      0.01149         0.001913     -0.000429     -0.003544
      9.51845      0.00337      0.01490         0.004589     -0.004611      0.000188
      9.51855      1.42644      0.01438        -0.005128      0.005574     -0.000180
      8.28593      2.13803      0.01453         0.006552     -0.003478      0.000687
      8.28613      3.56115      0.01464        -0.004125      0.002058      0.000076
      7.05356      4.27269      0.01457         0.003169     -0.001035     -0.000340
      7.05362      5.69588      0.01553        -0.002348      0.001452     -0.000034
      5.82112      6.40755      0.01489        -0.002636      0.001705      0.000124
      5.82102      7.83073      0.01579         0.002635      0.000426     -0.000235
      7.05363      8.54227      0.01631        -0.004566      0.001011      0.001179
     -5.27149      9.96549      0.01495        -0.000278     -0.002264     -0.001892
     -2.80638      8.54234      0.01558         0.003372     -0.001724     -0.000966
     -2.80627      9.96553      0.01362        -0.006255     -0.000349     -0.003446
     -0.34149      8.54239      0.01378         0.005826     -0.004756      0.000348
     -0.34138      9.96550      0.01354        -0.005600     -0.000149     -0.000989
      2.12343      8.54232      0.01336         0.005684     -0.001505      0.000779
      2.12354      9.96544      0.01469        -0.005370      0.003899     -0.001713
      4.58846      8.54235      0.01505         0.003591     -0.002800      0.001032
      4.58853      9.96550      0.01517        -0.003093      0.003375      0.000271
      3.04930      2.68154      5.94604        -0.005642      0.004718      0.023494
      4.02070      2.02068      6.01046        -0.551305      0.374698     -0.057217
      2.07767      3.34267      5.88658         0.556918     -0.379445      0.012366
 -----------------------------------------------------------------------------------
    total drift:                               -0.000052     -0.000046     -0.002012


--------------------------------------------------------------------------------------------------------



  FREE ENERGIE OF THE ION-ELECTRON SYSTEM (eV)
  ---------------------------------------------------
  free  energy   TOTEN  =      -417.41586964 eV

  energy  without entropy=     -417.41586964  energy(sigma->0) =     -417.41586964
 


--------------------------------------------------------------------------------------------------------


    POTLOK:  cpu time    4.2816: real time    4.3134


--------------------------------------------------------------------------------------------------------


 writing wavefunctions
     LOOP+:  cpu time  285.6359: real time  288.3635
    4ORBIT:  cpu time    0.0000: real time    0.0000

 total amount of memory used by VASP MPI-rank0   100580. kBytes
=======================================================================

   base      :      30000. kBytes
   nonl-proj :       8229. kBytes
   fftplans  :      18352. kBytes
   grid      :      30208. kBytes
   one-center:          6. kBytes
   wavefun   :      13785. kBytes
 
  
  
 General timing and accounting informations for this job:
 ========================================================
  
                  Total CPU time used (sec):      328.381
                            User time (sec):      303.169
                          System time (sec):       25.212
                         Elapsed time (sec):      332.379
  
                   Maximum memory used (kb):      814700.
                   Average memory used (kb):          N/A
  
                          Minor page faults:       412821
                          Major page faults:          101
                 Voluntary context switches:         3903
