 vasp.6.2.1 16May21 (build Nov 06 2021 14:46:37) complex                        
  
 executed on             LinuxIFC date 2025.04.16  18:57:18
 running on  112 total cores
 distrk:  each k-point on  112 cores,    1 groups
 distr:  one band on NCORE=  28 cores,    4 groups


--------------------------------------------------------------------------------------------------------


 INCAR:
   ALGO = Conjugate
   NPAR = 4
   ISMEAR = 0
   SIGMA = 0.01
   PREC = Accurate
   EDIFF = 1E-7
   ENCUT = 1000
   ISIF = 0
   GGA = MK
   PARAM1 = 0.1234
   PARAM2 = 1.0000
   LUSE_VDW = .TRUE.
   AGGAC = 0.0000
   LASPH = .TRUE.
   SYMPREC = 1E-7

 POTCAR:    PAW_PBE C_h 06Feb2004                 
 POTCAR:    PAW_PBE O_h 06Feb2004                 
 -----------------------------------------------------------------------------
|                                                                             |
|           W    W    AA    RRRRR   N    N  II  N    N   GGGG   !!!           |
|           W    W   A  A   R    R  NN   N  II  NN   N  G    G  !!!           |
|           W    W  A    A  R    R  N N  N  II  N N  N  G       !!!           |
|           W WW W  AAAAAA  RRRRR   N  N N  II  N  N N  G  GGG   !            |
|           WW  WW  A    A  R   R   N   NN  II  N   NN  G    G                |
|           W    W  A    A  R    R  N    N  II  N    N   GGGG   !!!           |
|                                                                             |
|     For optimal performance we recommend to set                             |
|       NCORE = 2 up to number-of-cores-per-socket                            |
|     NCORE specifies how many cores store one orbital (NPAR=cpu/NCORE).      |
|     This setting can greatly improve the performance of VASP for DFT.       |
|     The default, NCORE=1 might be grossly inefficient on modern             |
|     multi-core architectures or massively parallel machines. Do your        |
|     own testing! More info at https://www.vasp.at/wiki/index.php/NCORE      |
|     Unfortunately you need to use the default for GW and RPA                |
|     calculations (for HF NCORE is supported but not extensively tested      |
|     yet).                                                                   |
|                                                                             |
 -----------------------------------------------------------------------------

 -----------------------------------------------------------------------------
|                                                                             |
|               ----> ADVICE to this user running VASP <----                  |
|                                                                             |
|     You have switched on vdW-DFT.                                           |
|     This routine was written and supplied by Jiri Klimes. We recommend      |
|     that you carefully read and cite the following publications:            |
|       J. Klimes, D.R. Bowler, A. Michelides                                 |
|          J. Phys.: Cond Matt. 22 022201 (2010)                              |
|       J. Klimes, D.R. Bowler, A. Michelides                                 |
|          Phys. Rev. B. 83, 195131 (2011)                                    |
|     and references therein.                                                 |
|                                                                             |
 -----------------------------------------------------------------------------

 POTCAR:    PAW_PBE C_h 06Feb2004                 
   VRHFIN =C: s2p2                                                                                  
   LEXCH  = PE                                                                                      
   EATOM  =   147.1560 eV,   10.8157 Ry                                                             
                                                                                                    
   TITEL  = PAW_PBE C_h 06Feb2004                                                                   
   LULTRA =        F    use ultrasoft PP ?                                                          
   IUNSCR =        1    unscreen: 0-lin 1-nonlin 2-no                                               
   RPACOR =    0.800    partial core radius                                                         
   POMASS =   12.011; ZVAL   =    4.000    mass and valenz                                          
   RCORE  =    1.100    outmost cutoff radius                                                       
   RWIGS  =    1.630; RWIGS  =    0.863    wigner-seitz radius (au A)                               
   ENMAX  =  700.000; ENMIN  =  500.000 eV                                                          
   ICORE  =        2    local potential                                                             
   LCOR   =        T    correct aug charges                                                         
   LPAW   =        T    paw PP                                                                      
   EAUG   =  946.768                                                                                
   DEXC   =    0.000                                                                                
   RMAX   =    1.128    core radius for proj-oper                                                   
   RAUG   =    1.300    factor for augmentation sphere                                              
   RDEP   =    1.162    radius for radial grids                                                     
   RDEPT  =    1.088    core radius for aug-charge                                                  
                                                                                                    
   Atomic configuration                                                                             
    4 entries                                                                                       
     n  l   j            E        occ.                                                              
     1  0  0.50      -273.3789   2.0000                                                             
     2  0  0.50       -13.7508   2.0000                                                             
     2  1  0.50        -5.2854   2.0000                                                             
     3  2  1.50        -5.4423   0.0000                                                             
   Description                                                                                      
     l       E           TYP  RCUT    TYP  RCUT                                                     
     0    -13.7508458     23  1.100                                                                 
     0     -8.2022199     23  1.100                                                                 
     1     -5.2854383     23  1.100                                                                 
     1      1.1560700     23  1.100                                                                 
     2     -5.4423304      7  1.100                                                                 
  local pseudopotential read in
  partial core-charges read in
  partial kinetic energy density read in
  atomic valenz-charges read in
  non local Contribution for L=           0  read in
    real space projection operators read in
  non local Contribution for L=           0  read in
    real space projection operators read in
  non local Contribution for L=           1  read in
    real space projection operators read in
  non local Contribution for L=           1  read in
    real space projection operators read in
    PAW grid and wavefunctions read in
 
   number of l-projection  operators is LMAX  =           4
   number of lm-projection operators is LMMAX =           8
 
 POTCAR:    PAW_PBE O_h 06Feb2004                 
   VRHFIN =O: s2p4                                                                                  
   LEXCH  = PE                                                                                      
   EATOM  =   432.3788 eV,   31.7789 Ry                                                             
                                                                                                    
   TITEL  = PAW_PBE O_h 06Feb2004                                                                   
   LULTRA =        F    use ultrasoft PP ?                                                          
   IUNSCR =        1    unscreen: 0-lin 1-nonlin 2-no                                               
   RPACOR =    0.800    partial core radius                                                         
   POMASS =   16.000; ZVAL   =    6.000    mass and valenz                                          
   RCORE  =    1.100    outmost cutoff radius                                                       
   RWIGS  =    1.400; RWIGS  =    0.741    wigner-seitz radius (au A)                               
   ENMAX  =  700.000; ENMIN  =  500.000 eV                                                          
   ICORE  =        2    local potential                                                             
   LCOR   =        T    correct aug charges                                                         
   LPAW   =        T    paw PP                                                                      
   EAUG   =  888.804                                                                                
   DEXC   =    0.000                                                                                
   RMAX   =    1.128    core radius for proj-oper                                                   
   RAUG   =    1.300    factor for augmentation sphere                                              
   RDEP   =    1.125    radius for radial grids                                                     
   RDEPT  =    1.088    core radius for aug-charge                                                  
                                                                                                    
   Atomic configuration                                                                             
    4 entries                                                                                       
     n  l   j            E        occ.                                                              
     1  0  0.50      -514.6923   2.0000                                                             
     2  0  0.50       -23.9615   2.0000                                                             
     2  1  0.50        -9.0305   4.0000                                                             
     3  2  1.50        -9.5241   0.0000                                                             
   Description                                                                                      
     l       E           TYP  RCUT    TYP  RCUT                                                     
     0    -23.9615319     23  1.100                                                                 
     0    -25.3221145     23  1.100                                                                 
     1     -9.0304911     23  1.100                                                                 
     1     -5.4802209     23  1.100                                                                 
     2     -9.5240782      7  1.100                                                                 
  local pseudopotential read in
  partial core-charges read in
  partial kinetic energy density read in
  atomic valenz-charges read in
  non local Contribution for L=           0  read in
    real space projection operators read in
  non local Contribution for L=           0  read in
    real space projection operators read in
  non local Contribution for L=           1  read in
    real space projection operators read in
  non local Contribution for L=           1  read in
    real space projection operators read in
    PAW grid and wavefunctions read in
 
   number of l-projection  operators is LMAX  =           4
   number of lm-projection operators is LMMAX =           8
 
 -----------------------------------------------------------------------------
|                                                                             |
|               ----> ADVICE to this user running VASP <----                  |
|                                                                             |
|     You have a (more or less) 'large supercell' and for larger cells it     |
|     might be more efficient to use real-space projection operators.         |
|     Therefore, try LREAL= Auto in the INCAR file.                           |
|     Mind: For very accurate calculation, you might also keep the            |
|     reciprocal projection scheme (i.e. LREAL=.FALSE.).                      |
|                                                                             |
 -----------------------------------------------------------------------------

 -----------------------------------------------------------------------------
|                                                                             |
|               ----> ADVICE to this user running VASP <----                  |
|                                                                             |
|     You enforced a specific xc type in the INCAR file but a different       |
|     type was found in the POTCAR file.                                      |
|     I HOPE YOU KNOW WHAT YOU ARE DOING!                                     |
|                                                                             |
 -----------------------------------------------------------------------------

  PAW_PBE C_h 06Feb2004                 :
 energy of atom  1       EATOM= -147.1560
 kinetic energy error for atom=    0.0031 (will be added to EATOM!!)
  PAW_PBE O_h 06Feb2004                 :
 energy of atom  2       EATOM= -432.3788
 kinetic energy error for atom=    0.0171 (will be added to EATOM!!)
 
 
 POSCAR:  C  O
  positions in cartesian coordinates
  No initial velocities read in
 exchange correlation table for  LEXCH =       43
   RHO(1)=    0.500       N(1)  =     2000
   RHO(2)=  100.500       N(2)  =     4000
 


--------------------------------------------------------------------------------------------------------


 ion  position               nearest neighbor table
   1  0.972  0.000  0.001-  50 1.42   2 1.42  42 1.42
   2  0.039  0.134  0.000-   5 1.42   7 1.42   1 1.42
   3  0.172  0.000  0.000-  42 1.42  44 1.42   4 1.42
   4  0.239  0.134  0.000-   7 1.42   3 1.42  23 1.42
   5  0.972  0.200  0.000-   6 1.42   2 1.42  34 1.42
   6  0.039  0.334  0.000-   5 1.42  21 1.42  11 1.42
   7  0.172  0.200  0.000-   8 1.42   2 1.42   4 1.42
   8  0.239  0.334  0.000-  13 1.42   7 1.42  21 1.42
   9  0.372  0.000  0.000-  10 1.42  44 1.42  46 1.42
  10  0.439  0.134  0.000-  27 1.42   9 1.42  23 1.42
  11  0.972  0.400  0.001-  12 1.42  36 1.42   6 1.42
  12  0.039  0.534  0.001-  25 1.42  11 1.42  17 1.42
  13  0.372  0.400  0.000-   8 1.42  14 1.42  24 1.42
  14  0.439  0.534  0.000-  13 1.42  29 1.42  19 1.42
  15  0.572  0.000  0.001-  46 1.42  16 1.42  48 1.42
  16  0.639  0.134  0.001-  15 1.42  35 1.42  27 1.42
  17  0.972  0.600  0.001-  38 1.42  18 1.42  12 1.42
  18  0.039  0.734  0.001-  43 1.42  41 1.42  17 1.42
  19  0.572  0.600  0.000-  14 1.42  20 1.42  32 1.42
  20  0.639  0.734  0.001-  49 1.42  19 1.42  47 1.42
  21  0.172  0.400  0.000-  22 1.42   8 1.42   6 1.42
  22  0.239  0.534  0.000-  21 1.42  29 1.42  25 1.42
  23  0.372  0.200  0.000-  10 1.42   4 1.42  24 1.42
  24  0.439  0.334  0.000-  13 1.42  31 1.42  23 1.42
  25  0.172  0.600  0.001-  26 1.42  12 1.42  22 1.42
  26  0.239  0.734  0.001-  25 1.42  45 1.42  43 1.42
  27  0.572  0.200  0.000-  10 1.42  28 1.42  16 1.42
  28  0.639  0.334  0.000-  27 1.42  37 1.42  31 1.42
  29  0.372  0.600  0.000-  22 1.42  14 1.42  30 1.42
  30  0.439  0.734  0.000-  47 1.42  29 1.42  45 1.42
  31  0.572  0.400  0.000-  32 1.42  28 1.42  24 1.42
  32  0.639  0.534  0.000-  31 1.42  39 1.42  19 1.42
  33  0.772  0.000  0.001-  34 1.42  48 1.42  50 1.42
  34  0.839  0.134  0.001-  33 1.42   5 1.42  35 1.42
  35  0.772  0.200  0.001-  36 1.42  16 1.42  34 1.42
  36  0.839  0.334  0.001-  35 1.42  11 1.42  37 1.42
  37  0.772  0.400  0.001-  28 1.42  38 1.42  36 1.42
  38  0.839  0.534  0.001-  17 1.42  37 1.42  39 1.42
  39  0.772  0.600  0.001-  40 1.42  38 1.42  32 1.42
  40  0.839  0.734  0.001-  39 1.42  49 1.42  41 1.42
  41  0.972  0.800  0.001-  18 1.42  42 1.42  40 1.42
  42  0.039  0.934  0.001-   3 1.42  41 1.42   1 1.42
  43  0.172  0.800  0.001-  18 1.42  44 1.42  26 1.42
  44  0.239  0.934  0.001-   9 1.42  43 1.42   3 1.42
  45  0.372  0.800  0.001-  26 1.42  46 1.42  30 1.42
  46  0.439  0.934  0.001-  15 1.42  45 1.42   9 1.42
  47  0.572  0.800  0.001-  30 1.42  48 1.42  20 1.42
  48  0.639  0.934  0.001-  47 1.42  33 1.42  15 1.42
  49  0.772  0.800  0.001-  50 1.42  20 1.42  40 1.42
  50  0.839  0.934  0.001-  49 1.42   1 1.42  33 1.42
  51  0.373  0.251  0.378-  52 1.18  53 1.18
  52  0.421  0.189  0.380-  51 1.18
  53  0.325  0.313  0.375-  51 1.18
 
  LATTYP: Found a hexagonal cell.
 ALAT       =    12.3250000000
 C/A-ratio  =     2.0283975659
  
  Lattice vectors:
  
 A1 = (  12.3250000000,   0.0000000000,   0.0000000000)
 A2 = (  -6.1625000000,  10.6737631016,   0.0000000000)
 A3 = (   0.0000000000,   0.0000000000,  25.0000000000)


Analysis of symmetry for initial positions (statically):
=====================================================================
 Subroutine PRICEL returns:
 Original cell was already a primitive cell.
 

 Routine SETGRP: Setting up the symmetry group for a 
 hexagonal supercell.


 Subroutine GETGRP returns: Found  1 space group operations
 (whereof  1 operations were pure point group operations)
 out of a pool of 24 trial point group operations.


The static configuration has the point symmetry C_1 .


Analysis of symmetry for dynamics (positions and initial velocities):
=====================================================================
 Subroutine PRICEL returns:
 Original cell was already a primitive cell.
 

 Routine SETGRP: Setting up the symmetry group for a 
 hexagonal supercell.


 Subroutine GETGRP returns: Found  1 space group operations
 (whereof  1 operations were pure point group operations)
 out of a pool of 24 trial point group operations.


The dynamic configuration has the point symmetry C_1 .


 Subroutine INISYM returns: Found  1 space group operations
 (whereof  1 operations are pure point group operations),
 and found     1 'primitive' translations


----------------------------------------------------------------------------------------

                                     Primitive cell                                     

  volume of cell :    3288.8533

  direct lattice vectors                    reciprocal lattice vectors
    12.325000000  0.000000000  0.000000000     0.081135903  0.046843835  0.000000000
    -6.162500000 10.673763102  0.000000000     0.000000000  0.093687670  0.000000000
     0.000000000  0.000000000 25.000000000     0.000000000  0.000000000  0.040000000

  length of vectors
    12.325000000 12.325000000 25.000000000     0.093687670  0.093687670  0.040000000

  position of ions in fractional coordinates (direct lattice)
     0.972450841  0.000320818  0.000566711
     0.039118382  0.133659505  0.000440173
     0.172443627  0.000295449  0.000499628
     0.239096278  0.133647917  0.000256468
     0.972452058  0.200322012  0.000485219
     0.039128360  0.333643771  0.000444150
     0.172451764  0.200354552  0.000219167
     0.239124359  0.333665720  0.000072260
     0.372465565  0.000324403  0.000453913
     0.439137473  0.133619939  0.000258338
     0.972449824  0.400309362  0.000547611
     0.039124981  0.533636789  0.000573410
     0.372416176  0.400329481  0.000000000
     0.439099602  0.533638981  0.000232414
     0.572443676  0.000312125  0.000559580
     0.639110207  0.133631751  0.000547275
     0.972452703  0.600305653  0.000640289
     0.039124495  0.733640359  0.000654513
     0.572433471  0.600306242  0.000402895
     0.639111888  0.733641879  0.000527905
     0.172454630  0.400318228  0.000289045
     0.239120185  0.533636548  0.000378509
     0.372459750  0.200295993  0.000088997
     0.439107096  0.333673419  0.000055762
     0.172452155  0.600311506  0.000524340
     0.239123371  0.733638574  0.000575129
     0.572431082  0.200289171  0.000413296
     0.639112773  0.333618630  0.000462376
     0.372439808  0.600308022  0.000362844
     0.439116090  0.733637858  0.000494190
     0.572469358  0.400320504  0.000339918
     0.639119408  0.533650873  0.000459610
     0.772445723  0.000315427  0.000596161
     0.839116277  0.133640203  0.000575306
     0.772440513  0.200307432  0.000581033
     0.839120241  0.333635728  0.000585467
     0.772446320  0.400298367  0.000582978
     0.839118980  0.533633964  0.000621100
     0.772456143  0.600308173  0.000595712
     0.839115033  0.733643180  0.000631512
     0.972455313  0.800305582  0.000652233
     0.039114714  0.933643289  0.000598051
     0.172457971  0.800312211  0.000623372
     0.239134551  0.933647193  0.000544850
     0.372451396  0.800316674  0.000551399
     0.439124489  0.933644769  0.000541430
     0.572441101  0.800310054  0.000534535
     0.639115067  0.933638985  0.000587644
     0.772445098  0.800313187  0.000602062
     0.839116614  0.933644338  0.000606830
     0.373021009  0.251226878  0.377549725
     0.420879805  0.189313152  0.380126600
     0.325156981  0.313167186  0.375171530

  ion indices of the primitive-cell ions
   primitive index   ion index
                 1           1
                 2           2
                 3           3
                 4           4
                 5           5
                 6           6
                 7           7
                 8           8
                 9           9
                10          10
                11          11
                12          12
                13          13
                14          14
                15          15
                16          16
                17          17
                18          18
                19          19
                20          20
                21          21
                22          22
                23          23
                24          24
                25          25
                26          26
                27          27
                28          28
                29          29
                30          30
                31          31
                32          32
                33          33
                34          34
                35          35
                36          36
                37          37
                38          38
                39          39
                40          40
                41          41
                42          42
                43          43
                44          44
                45          45
                46          46
                47          47
                48          48
                49          49
                50          50
                51          51
                52          52
                53          53

----------------------------------------------------------------------------------------

 
 
 KPOINTS: auto                                    

Automatic generation of k-mesh.
 Grid dimensions read from file:
 generate k-points for:    1    1    1

 Generating k-lattice:

  Cartesian coordinates                     Fractional coordinates (reciprocal lattice)
     0.081135903  0.046843835  0.000000000     1.000000000 -0.000000000  0.000000000
     0.000000000  0.093687670  0.000000000     0.000000000  1.000000000  0.000000000
     0.000000000  0.000000000  0.040000000     0.000000000  0.000000000  1.000000000

  Length of vectors
     0.093687670  0.093687670  0.040000000

  Shift w.r.t. Gamma in fractional coordinates (k-lattice)
     0.000000000  0.000000000  0.000000000

 
 Subroutine IBZKPT returns following result:
 ===========================================
 
 Found      1 irreducible k-points:
 
 Following reciprocal coordinates:
            Coordinates               Weight
  0.000000  0.000000  0.000000      1.000000
 
 Following cartesian coordinates:
            Coordinates               Weight
  0.000000  0.000000  0.000000      1.000000
 


--------------------------------------------------------------------------------------------------------




 Dimension of arrays:
   k-points           NKPTS =      1   k-points in BZ     NKDIM =      1   number of bands    NBANDS=    136
   number of dos      NEDOS =    301   number of ions     NIONS =     53
   non local maximal  LDIM  =      4   non local SUM 2l+1 LMDIM =      8
   total plane-waves  NPLWV = ******
   max r-space proj   IRMAX =      1   max aug-charges    IRDMAX=  10008
   dimension x,y,z NGX =   128 NGY =  128 NGZ =  270
   dimension x,y,z NGXF=   256 NGYF=  256 NGZF=  540
   support grid    NGXF=   256 NGYF=  256 NGZF=  540
   ions per type =              51   2
   NGX,Y,Z   is equivalent  to a cutoff of  17.27, 17.27, 17.95 a.u.
   NGXF,Y,Z  is equivalent  to a cutoff of  34.53, 34.53, 35.91 a.u.

 SYSTEM =  unknown system                          
 POSCAR =   C  O                                   

 Startparameter for this run:
   NWRITE =      2    write-flag & timer
   PREC   = accura    normal or accurate (medium, high low for compatibility)
   ISTART =      0    job   : 0-new  1-cont  2-samecut
   ICHARG =      2    charge: 1-file 2-atom 10-const
   ISPIN  =      1    spin polarized calculation?
   LNONCOLLINEAR =      F non collinear calculations
   LSORBIT =      F    spin-orbit coupling
   INIWAV =      1    electr: 0-lowe 1-rand  2-diag
   LASPH  =      T    aspherical Exc in radial PAW
 Electronic Relaxation 1
   ENCUT  = 1000.0 eV  73.50 Ry    8.57 a.u.  31.78 31.78 64.46*2*pi/ulx,y,z
   ENINI  = 1000.0     initial cutoff
   ENAUG  =  946.8 eV  augmentation charge cutoff
   NELM   =     60;   NELMIN=  2; NELMDL= -5     # of ELM steps 
   EDIFF  = 0.1E-06   stopping-criterion for ELM
   LREAL  =      F    real-space projection
   NLSPLINE    = F    spline interpolate recip. space projectors
   LCOMPAT=      F    compatible to vasp.4.4
   GGA_COMPAT  = T    GGA compatible to vasp.4.4-vasp.4.6
   LMAXPAW     = -100 max onsite density
   LMAXMIX     =    2 max onsite mixed and CHGCAR
   VOSKOWN=      0    Vosko Wilk Nusair interpolation
   ROPT   =    0.00000   0.00000
 Ionic relaxation
   EDIFFG = 0.1E-05   stopping-criterion for IOM
   NSW    =      0    number of steps for IOM
   NBLOCK =      1;   KBLOCK =      1    inner block; outer block 
   IBRION =     -1    ionic relax: 0-MD 1-quasi-New 2-CG
   NFREE  =      0    steps in history (QN), initial steepest desc. (CG)
   ISIF   =      0    stress and relaxation
   IWAVPR =     10    prediction:  0-non 1-charg 2-wave 3-comb
   ISYM   =      2    0-nonsym 1-usesym 2-fastsym
   LCORR  =      T    Harris-Foulkes like correction to forces

   POTIM  = 0.5000    time-step for ionic-motion
   TEIN   =    0.0    initial temperature
   TEBEG  =    0.0;   TEEND  =   0.0 temperature during run
   SMASS  =  -3.00    Nose mass-parameter (am)
   estimated Nose-frequenzy (Omega)   =  0.10E-29 period in steps = 0.13E+47 mass=  -0.347E-26a.u.
   SCALEE = 1.0000    scale energy and forces
   NPACO  =    256;   APACO  = 16.0  distance and # of slots for P.C.
   PSTRESS=    0.0 pullay stress

  Mass of Ions in am
   POMASS =  12.01 16.00
  Ionic Valenz
   ZVAL   =   4.00  6.00
  Atomic Wigner-Seitz radii
   RWIGS  =  -1.00 -1.00
  virtual crystal weights 
   VCA    =   1.00  1.00
   NELECT =     216.0000    total number of electrons
   NUPDOWN=      -1.0000    fix difference up-down

 DOS related values:
   EMIN   =  10.00;   EMAX   =-10.00  energy-range for DOS
   EFERMI =   0.00
   ISMEAR =     0;   SIGMA  =   0.01  broadening in eV -4-tet -1-fermi 0-gaus

 Electronic relaxation 2 (details)
   IALGO  =     58    algorithm
   LDIAG  =      T    sub-space diagonalisation (order eigenvalues)
   LSUBROT=      F    optimize rotation matrix (better conditioning)
   TURBO    =      0    0=normal 1=particle mesh
   IRESTART =      0    0=no restart 2=restart with 2 vectors
   NREBOOT  =      0    no. of reboots
   NMIN     =      0    reboot dimension
   EREF     =   0.00    reference energy to select bands
   IMIX   =      4    mixing-type and parameters
     AMIX     =   0.40;   BMIX     =  1.00
     AMIX_MAG =   1.60;   BMIX_MAG =  1.00
     AMIN     =   0.10
     WC   =   100.;   INIMIX=   1;  MIXPRE=   1;  MAXMIX= -45

 Intra band minimization:
   WEIMIN = 0.0000     energy-eigenvalue tresh-hold
   EBREAK =  0.18E-09  absolut break condition
   DEPER  =   0.30     relativ break condition  

   TIME   =   0.40     timestep for ELM

  volume/ion in A,a.u.               =      62.05       418.76
  Fermi-wavevector in a.u.,A,eV,Ry     =   0.660508  1.248179  5.935820  0.436270
  Thomas-Fermi vector in A             =   1.732977
 
 Write flags
   LWAVE        =      T    write WAVECAR
   LDOWNSAMPLE  =      F    k-point downsampling of WAVECAR
   LCHARG       =      T    write CHGCAR
   LVTOT        =      F    write LOCPOT, total local potential
   LVHAR        =      F    write LOCPOT, Hartree potential only
   LELF         =      F    write electronic localiz. function (ELF)
   LORBIT       =      0    0 simple, 1 ext, 2 COOP (PROOUT), +10 PAW based schemes


 Dipole corrections
   LMONO  =      F    monopole corrections only (constant potential shift)
   LDIPOL =      F    correct potential (dipole corrections)
   IDIPOL =      0    1-x, 2-y, 3-z, 4-all directions 
   EPSILON=  1.0000000 bulk dielectric constant

 Exchange correlation treatment:
   GGA     =    MK    GGA type
   LEXCH   =    43    internal setting for exchange type
   VOSKOWN=      0    Vosko Wilk Nusair interpolation
   LHFCALC =     F    Hartree Fock is set to
   LHFONE  =     F    Hartree Fock one center treatment
   AEXX    =    0.0000 exact exchange contribution

 vdW DFT:
   LUSE_VDW   =     T    switch on vdW DFT
   Zab_VDW    =-.8491    correlation parameter
   PARAM1     =0.1234
   PARAM2     =1.0000
   PARAM3     =0.0000
   -- rVV10 --
   BPARAM     = 6.3000
   CPARAM     = 0.0093

 Linear response parameters
   LEPSILON=     F    determine dielectric tensor
   LRPA    =     F    only Hartree local field effects (RPA)
   LNABLA  =     F    use nabla operator in PAW spheres
   LVEL    =     F    velocity operator in full k-point grid
   LINTERFAST=   F  fast interpolation
   KINTER  =     0    interpolate to denser k-point grid
   CSHIFT  =0.1000    complex shift for real part using Kramers Kronig
   OMEGAMAX=  -1.0    maximum frequency
   DEG_THRESHOLD= 0.2000000E-02 threshold for treating states as degnerate
   RTIME   =   -0.100 relaxation time in fs
  (WPLASMAI=    0.000 imaginary part of plasma frequency in eV, 0.658/RTIME)
   DFIELD  = 0.0000000 0.0000000 0.0000000 field for delta impulse in time
 
 Orbital magnetization related:
   ORBITALMAG=     F  switch on orbital magnetization
   LCHIMAG   =     F  perturbation theory with respect to B field
   DQ        =  0.001000  dq finite difference perturbation B field
   LLRAUG    =     F  two centre corrections for induced B field



--------------------------------------------------------------------------------------------------------


 Static calculation
 charge density and potential will be updated during run
 non-spin polarized calculation
 Conjugate gradient for all bands (Freysoldt, et al. PRB 79, 241103 (2009))
 preconditioned conjugated gradient                                        
 perform sub-space diagonalisation
    before iterative eigenvector-optimisation
 modified Broyden-mixing scheme, WC =      100.0
 initial mixing is a Kerker type mixing with AMIX =  0.4000 and BMIX =      1.0000
 Hartree-type preconditioning will be used
 using additional bands           28
 reciprocal scheme for non local part
 use partial core corrections
 no Harris-corrections to forces 
 use gradient corrections 
 use of overlap-Matrix (Vanderbilt PP)
 Gauss-broadening in eV      SIGMA  =   0.01


--------------------------------------------------------------------------------------------------------


  energy-cutoff  :     1000.00
  volume of cell :     3288.85
      direct lattice vectors                 reciprocal lattice vectors
    12.325000000  0.000000000  0.000000000     0.081135903  0.046843835  0.000000000
    -6.162500000 10.673763102  0.000000000     0.000000000  0.093687670  0.000000000
     0.000000000  0.000000000 25.000000000     0.000000000  0.000000000  0.040000000

  length of vectors
    12.325000000 12.325000000 25.000000000     0.093687670  0.093687670  0.040000000


 
 k-points in units of 2pi/SCALE and weight: auto                                    
   0.00000000  0.00000000  0.00000000       1.000
 
 k-points in reciprocal lattice and weights: auto                                    
   0.00000000  0.00000000  0.00000000       1.000
 
 position of ions in fractional coordinates (direct lattice) 
   0.97245084  0.00032082  0.00056671
   0.03911838  0.13365950  0.00044017
   0.17244363  0.00029545  0.00049963
   0.23909628  0.13364792  0.00025647
   0.97245206  0.20032201  0.00048522
   0.03912836  0.33364377  0.00044415
   0.17245176  0.20035455  0.00021917
   0.23912436  0.33366572  0.00007226
   0.37246557  0.00032440  0.00045391
   0.43913747  0.13361994  0.00025834
   0.97244982  0.40030936  0.00054761
   0.03912498  0.53363679  0.00057341
   0.37241618  0.40032948  0.00000000
   0.43909960  0.53363898  0.00023241
   0.57244368  0.00031213  0.00055958
   0.63911021  0.13363175  0.00054727
   0.97245270  0.60030565  0.00064029
   0.03912449  0.73364036  0.00065451
   0.57243347  0.60030624  0.00040289
   0.63911189  0.73364188  0.00052791
   0.17245463  0.40031823  0.00028904
   0.23912018  0.53363655  0.00037851
   0.37245975  0.20029599  0.00008900
   0.43910710  0.33367342  0.00005576
   0.17245216  0.60031151  0.00052434
   0.23912337  0.73363857  0.00057513
   0.57243108  0.20028917  0.00041330
   0.63911277  0.33361863  0.00046238
   0.37243981  0.60030802  0.00036284
   0.43911609  0.73363786  0.00049419
   0.57246936  0.40032050  0.00033992
   0.63911941  0.53365087  0.00045961
   0.77244572  0.00031543  0.00059616
   0.83911628  0.13364020  0.00057531
   0.77244051  0.20030743  0.00058103
   0.83912024  0.33363573  0.00058547
   0.77244632  0.40029837  0.00058298
   0.83911898  0.53363396  0.00062110
   0.77245614  0.60030817  0.00059571
   0.83911503  0.73364318  0.00063151
   0.97245531  0.80030558  0.00065223
   0.03911471  0.93364329  0.00059805
   0.17245797  0.80031221  0.00062337
   0.23913455  0.93364719  0.00054485
   0.37245140  0.80031667  0.00055140
   0.43912449  0.93364477  0.00054143
   0.57244110  0.80031005  0.00053453
   0.63911507  0.93363899  0.00058764
   0.77244510  0.80031319  0.00060206
   0.83911661  0.93364434  0.00060683
   0.37302101  0.25122688  0.37754973
   0.42087980  0.18931315  0.38012660
   0.32515698  0.31316719  0.37517153
 
 position of ions in cartesian coordinates  (Angst):
  11.98347958  0.00342433  0.01416777
  -0.34154264  1.42664989  0.01100432
   2.12354700  0.00315355  0.01249070
   2.12325634  1.42652621  0.00641170
  10.75098721  2.13818970  0.01213047
  -1.57382270  3.56123457  0.01110375
   0.89078307  2.13853702  0.00547917
   0.89099273  3.56146885  0.00180651
   4.58863896  0.00346260  0.01134782
   4.58893648  1.42622757  0.00645846
   9.51853763  4.27280730  0.01369027
  -2.80632132  5.69591267  0.01433526
   2.12299894  4.27302204  0.00000000
   2.12335237  5.69593607  0.00581036
   7.05344483  0.00333155  0.01398950
   7.05352764  1.42635365  0.01368187
   8.28609598  6.40752033  0.01600723
  -4.03884931  7.83070339  0.01636283
   3.35585531  6.40752662  0.01007237
   3.35598594  7.83071962  0.01319763
  -0.34145776  4.27290193  0.00722612
  -0.34137895  5.69591010  0.00946273
   3.35624236  2.13791198  0.00222492
   3.35573251  3.56155103  0.00139405
  -1.57394684  6.40758280  0.01310850
  -1.57385216  7.83068434  0.01437823
   5.82093107  2.13783916  0.01033241
   5.82114012  3.56096622  0.01155939
   0.89092245  6.40754561  0.00907111
   0.89106251  7.83067670  0.01235474
   4.58870974  4.27292622  0.00849795
   4.58852320  5.69606300  0.01149026
   9.51844972  0.00336679  0.01490402
   9.51855036  1.42644387  0.01438264
   8.28593477  2.13803408  0.01452582
   8.28612680  3.56114872  0.01463668
   7.05356221  4.27268994  0.01457444
   7.05362213  5.69588251  0.01552751
   5.82112285  6.40754723  0.01489279
   5.82101669  7.83073350  0.01578780
   7.05362858  8.54227219  0.01630582
  -5.27148792  9.96548729  0.01495127
  -2.80637951  8.54234295  0.01558431
  -2.80626749  9.96552896  0.01362126
  -0.34148805  8.54239058  0.01378498
  -0.34137657  9.96550309  0.01353576
   2.12342586  8.54231992  0.01336337
   2.12354296  9.96544135  0.01469111
   4.58845581  8.54235337  0.01505154
   4.58852904  9.96549848  0.01517076
   3.04929830  2.68153618  9.43874313
   4.02070129  2.02068374  9.50316499
   2.07766701  3.34267235  9.37928826
 


--------------------------------------------------------------------------------------------------------


 k-point   1 :   0.0000 0.0000 0.0000  plane waves:  236157

 maximum and minimum number of plane-waves per node :      8440     8428

 maximum number of plane-waves:    236157
 maximum index in each direction: 
   IXMAX=   31   IYMAX=   31   IZMAX=   64
   IXMIN=  -31   IYMIN=  -31   IZMIN=  -64


 parallel 3D FFT for wavefunctions:
    minimum data exchange during FFTs selected (reduces bandwidth)
 parallel 3D FFT for charge:
    minimum data exchange during FFTs selected (reduces bandwidth)


 total amount of memory used by VASP MPI-rank0   100580. kBytes
=======================================================================

   base      :      30000. kBytes
   nonl-proj :       8229. kBytes
   fftplans  :      18352. kBytes
   grid      :      30208. kBytes
   one-center:          6. kBytes
   wavefun   :      13785. kBytes
 
     INWAV:  cpu time    0.0000: real time    0.0000
 Broyden mixing: mesh for mixing (old mesh)
   NGX = 63   NGY = 63   NGZ =129
  (NGX  =256   NGY  =256   NGZ  =540)
  gives a total of 512001 points

 initial charge density was supplied:
 charge density of overlapping atoms calculated
 number of electron     216.0000000 magnetization 
 keeping initial charge density in first step


--------------------------------------------------------------------------------------------------------


 Maximum index for augmentation-charges          471 (set IRDMAX)


--------------------------------------------------------------------------------------------------------


 First call to EWALD:  gamma=   0.119
 Maximum number of real-space cells 4x 4x 2
 Maximum number of reciprocal cells 2x 2x 4

    FEWALD:  cpu time    0.0025: real time    0.0026


--------------------------------------- Iteration      1(   1)  ---------------------------------------


vdW kernel read from vdw_kernel.bindat
  0.0000  0.2424  0.5071  0.7962  1.1119  1.4567  1.8333  2.2446  2.6937  3.1842
  3.7199  4.3049  4.9438  5.6415  6.4036  7.2358  8.1446  9.1372 10.2212 11.4050
 12.6979 14.1099 15.6519 17.3360 19.1751 21.1837 23.3773 25.7729 28.3892 31.2465
 34.3669 37.7748 41.4965 45.5611 50.0000
 
    POTLOK:  cpu time    4.5200: real time    4.5794
    SETDIJ:  cpu time    0.0547: real time    0.0550
    TRIAL :  cpu time    2.0711: real time    2.0947
    CORREC:  cpu time    0.0004: real time    0.0006
    --------------------------------------------
      LOOP:  cpu time    6.6495: real time    6.7626

 eigenvalue-minimisations  :   288
 total energy-change (2. order) : 0.2745763E+04  (-0.1019144E+05)
 number of electron     216.0000000 magnetization 
 augmentation part      216.0000000 magnetization 

 Free energy of the ion-electron system (eV)
  ---------------------------------------------------
  alpha Z        PSCENC =        47.94900195
  Ewald energy   TEWEN  =     40658.92799854
  -Hartree energ DENC   =    -46728.16613704
  -exchange      EXHF   =         0.00000000
  -V(xc)+E(xc)   XCENC  =       414.11450109
  PAW double counting   =      6552.85433684    -6257.21772958
  entropy T*S    EENTRO =        -0.00000002
  eigenvalues    EBANDS =      -357.73405530
  atomic energy  EATOM  =      8415.03548706
  ---------------------------------------------------
  free energy    TOTEN  =      2745.76340355 eV

  energy without entropy =     2745.76340356  energy(sigma->0) =     2745.76340355


--------------------------------------------------------------------------------------------------------




--------------------------------------- Iteration      1(   2)  ---------------------------------------


    TRIAL :  cpu time    2.8663: real time    2.8937
    CORREC:  cpu time    0.0001: real time    0.0001
    --------------------------------------------
      LOOP:  cpu time    2.9067: real time    2.9380

 eigenvalue-minimisations  :   448
 total energy-change (2. order) :-0.2310621E+04  (-0.2154717E+04)
 number of electron     216.0000000 magnetization 
 augmentation part      216.0000000 magnetization 

 Free energy of the ion-electron system (eV)
  ---------------------------------------------------
  alpha Z        PSCENC =        47.94900195
  Ewald energy   TEWEN  =     40658.92799854
  -Hartree energ DENC   =    -46728.16613704
  -exchange      EXHF   =         0.00000000
  -V(xc)+E(xc)   XCENC  =       414.11450109
  PAW double counting   =      6552.85433684    -6257.21772958
  entropy T*S    EENTRO =        -0.00000000
  eigenvalues    EBANDS =     -2668.35507748
  atomic energy  EATOM  =      8415.03548706
  ---------------------------------------------------
  free energy    TOTEN  =       435.14238139 eV

  energy without entropy =      435.14238139  energy(sigma->0) =      435.14238139


--------------------------------------------------------------------------------------------------------




--------------------------------------- Iteration      1(   3)  ---------------------------------------


    TRIAL :  cpu time    2.4150: real time    2.4359
    CORREC:  cpu time    0.0001: real time    0.0001
    --------------------------------------------
      LOOP:  cpu time    2.4641: real time    2.4885

 eigenvalue-minimisations  :   360
 total energy-change (2. order) :-0.8120359E+03  (-0.7986572E+03)
 number of electron     216.0000000 magnetization 
 augmentation part      216.0000000 magnetization 

 Free energy of the ion-electron system (eV)
  ---------------------------------------------------
  alpha Z        PSCENC =        47.94900195
  Ewald energy   TEWEN  =     40658.92799854
  -Hartree energ DENC   =    -46728.16613704
  -exchange      EXHF   =         0.00000000
  -V(xc)+E(xc)   XCENC  =       414.11450109
  PAW double counting   =      6552.85433684    -6257.21772958
  entropy T*S    EENTRO =        -0.00000000
  eigenvalues    EBANDS =     -3480.39101503
  atomic energy  EATOM  =      8415.03548706
  ---------------------------------------------------
  free energy    TOTEN  =      -376.89355616 eV

  energy without entropy =     -376.89355616  energy(sigma->0) =     -376.89355616


--------------------------------------------------------------------------------------------------------




--------------------------------------- Iteration      1(   4)  ---------------------------------------


    TRIAL :  cpu time    2.3020: real time    2.3218
    CORREC:  cpu time    0.0001: real time    0.0000
    --------------------------------------------
      LOOP:  cpu time    2.4103: real time    2.4329

 eigenvalue-minimisations  :   336
 total energy-change (2. order) :-0.7083127E+02  (-0.6985616E+02)
 number of electron     216.0000000 magnetization 
 augmentation part      216.0000000 magnetization 

 Free energy of the ion-electron system (eV)
  ---------------------------------------------------
  alpha Z        PSCENC =        47.94900195
  Ewald energy   TEWEN  =     40658.92799854
  -Hartree energ DENC   =    -46728.16613704
  -exchange      EXHF   =         0.00000000
  -V(xc)+E(xc)   XCENC  =       414.11450109
  PAW double counting   =      6552.85433684    -6257.21772958
  entropy T*S    EENTRO =        -0.00000000
  eigenvalues    EBANDS =     -3551.22228307
  atomic energy  EATOM  =      8415.03548706
  ---------------------------------------------------
  free energy    TOTEN  =      -447.72482420 eV

  energy without entropy =     -447.72482420  energy(sigma->0) =     -447.72482420


--------------------------------------------------------------------------------------------------------




--------------------------------------- Iteration      1(   5)  ---------------------------------------


    TRIAL :  cpu time    2.4102: real time    2.4302
    CORREC:  cpu time    0.0001: real time    0.0001
    CHARGE:  cpu time    0.1787: real time    0.1810
    --------------------------------------------
      LOOP:  cpu time    2.6638: real time    2.6885

 eigenvalue-minimisations  :   360
 total energy-change (2. order) :-0.2246031E+01  (-0.2226805E+01)
 number of electron     216.0000000 magnetization 
 augmentation part       -0.2511558 magnetization 

 Free energy of the ion-electron system (eV)
  ---------------------------------------------------
  alpha Z        PSCENC =        47.94900195
  Ewald energy   TEWEN  =     40658.92799854
  -Hartree energ DENC   =    -46728.16613704
  -exchange      EXHF   =         0.00000000
  -V(xc)+E(xc)   XCENC  =       414.11450109
  PAW double counting   =      6552.85433684    -6257.21772958
  entropy T*S    EENTRO =        -0.00000000
  eigenvalues    EBANDS =     -3553.46831396
  atomic energy  EATOM  =      8415.03548706
  ---------------------------------------------------
  free energy    TOTEN  =      -449.97085509 eV

  energy without entropy =     -449.97085509  energy(sigma->0) =     -449.97085509


--------------------------------------------------------------------------------------------------------




--------------------------------------- Iteration      1(   6)  ---------------------------------------


    POTLOK:  cpu time    4.2324: real time    4.2624
    SETDIJ:  cpu time    0.0531: real time    0.0532
    TRIAL :  cpu time    1.1628: real time    1.1739
    CORREC:  cpu time    4.7291: real time    4.7677
    CHARGE:  cpu time    0.1769: real time    0.1788
    --------------------------------------------
      LOOP:  cpu time   10.4211: real time   10.5070

 eigenvalue-minimisations  :     0
 total energy-change (2. order) : 0.5109666E+02  (-0.1578349E+02)
 number of electron     216.0000000 magnetization 
 augmentation part       -0.3447691 magnetization 

 Free energy of the ion-electron system (eV)
  ---------------------------------------------------
  alpha Z        PSCENC =        47.94900195
  Ewald energy   TEWEN  =     40658.92799854
  -Hartree energ DENC   =    -48162.92391354
  -exchange      EXHF   =         0.00000000
  -V(xc)+E(xc)   XCENC  =       461.70433321
  PAW double counting   =     85941.30635568   -85650.66267385
  entropy T*S    EENTRO =        -0.00000000
  eigenvalues    EBANDS =     -2110.21078766
  atomic energy  EATOM  =      8415.03548706
  ---------------------------------------------------
  free energy    TOTEN  =      -398.87419859 eV

  energy without entropy =     -398.87419859  energy(sigma->0) =     -398.87419859


--------------------------------------------------------------------------------------------------------




--------------------------------------- Iteration      1(   7)  ---------------------------------------


    POTLOK:  cpu time    4.2221: real time    4.2523
    SETDIJ:  cpu time    0.0530: real time    0.0532
    TRIAL :  cpu time    1.1570: real time    1.1677
    CORREC:  cpu time    4.7216: real time    4.7578
    CHARGE:  cpu time    0.1773: real time    0.1790
    --------------------------------------------
      LOOP:  cpu time   10.4138: real time   10.4945

 eigenvalue-minimisations  :     0
 total energy-change (2. order) :-0.1583306E+02  (-0.1848195E+01)
 number of electron     216.0000000 magnetization 
 augmentation part       -0.3891353 magnetization 

 Free energy of the ion-electron system (eV)
  ---------------------------------------------------
  alpha Z        PSCENC =        47.94900195
  Ewald energy   TEWEN  =     40658.92799854
  -Hartree energ DENC   =    -47649.23479348
  -exchange      EXHF   =         0.00000000
  -V(xc)+E(xc)   XCENC  =       444.66876179
  PAW double counting   =    101039.70871142  -100746.66232436
  entropy T*S    EENTRO =        -0.00000000
  eigenvalues    EBANDS =     -2625.10009723
  atomic energy  EATOM  =      8415.03548706
  ---------------------------------------------------
  free energy    TOTEN  =      -414.70725429 eV

  energy without entropy =     -414.70725429  energy(sigma->0) =     -414.70725429


--------------------------------------------------------------------------------------------------------




--------------------------------------- Iteration      1(   8)  ---------------------------------------


    POTLOK:  cpu time    4.2704: real time    4.3012
    SETDIJ:  cpu time    0.0536: real time    0.0538
    TRIAL :  cpu time    1.1587: real time    1.1694
    CORREC:  cpu time    4.7118: real time    4.7484
    CHARGE:  cpu time    0.1780: real time    0.1797
    --------------------------------------------
      LOOP:  cpu time   10.3840: real time   10.4700

 eigenvalue-minimisations  :     0
 total energy-change (2. order) :-0.1846639E+01  (-0.5076648E+00)
 number of electron     216.0000000 magnetization 
 augmentation part       -0.4067910 magnetization 

 Free energy of the ion-electron system (eV)
  ---------------------------------------------------
  alpha Z        PSCENC =        47.94900195
  Ewald energy   TEWEN  =     40658.92799854
  -Hartree energ DENC   =    -47620.30099419
  -exchange      EXHF   =         0.00000000
  -V(xc)+E(xc)   XCENC  =       444.14473375
  PAW double counting   =    104991.64453263  -104698.32223319
  entropy T*S    EENTRO =        -0.00000000
  eigenvalues    EBANDS =     -2655.63242017
  atomic energy  EATOM  =      8415.03548706
  ---------------------------------------------------
  free energy    TOTEN  =      -416.55389362 eV

  energy without entropy =     -416.55389362  energy(sigma->0) =     -416.55389362


--------------------------------------------------------------------------------------------------------




--------------------------------------- Iteration      1(   9)  ---------------------------------------


    POTLOK:  cpu time    4.2325: real time    4.2624
    SETDIJ:  cpu time    0.0530: real time    0.0532
    TRIAL :  cpu time    1.1658: real time    1.1768
    CORREC:  cpu time    4.7065: real time    4.7432
    CHARGE:  cpu time    0.1782: real time    0.1799
    --------------------------------------------
      LOOP:  cpu time   10.3860: real time   10.4707

 eigenvalue-minimisations  :     0
 total energy-change (2. order) :-0.5075851E+00  (-0.1904069E+00)
 number of electron     216.0000000 magnetization 
 augmentation part       -0.4153453 magnetization 

 Free energy of the ion-electron system (eV)
  ---------------------------------------------------
  alpha Z        PSCENC =        47.94900195
  Ewald energy   TEWEN  =     40658.92799854
  -Hartree energ DENC   =    -47636.53100913
  -exchange      EXHF   =         0.00000000
  -V(xc)+E(xc)   XCENC  =       444.32756220
  PAW double counting   =    107623.03656938  -107329.59502193
  entropy T*S    EENTRO =        -0.00000000
  eigenvalues    EBANDS =     -2640.21206678
  atomic energy  EATOM  =      8415.03548706
  ---------------------------------------------------
  free energy    TOTEN  =      -417.06147871 eV

  energy without entropy =     -417.06147871  energy(sigma->0) =     -417.06147871


--------------------------------------------------------------------------------------------------------




--------------------------------------- Iteration      1(  10)  ---------------------------------------


    POTLOK:  cpu time    4.2232: real time    4.2523
    SETDIJ:  cpu time    0.0533: real time    0.0535
    TRIAL :  cpu time    1.1566: real time    1.1685
    CORREC:  cpu time    4.6894: real time    4.7267
    CHARGE:  cpu time    0.1772: real time    0.1790
    --------------------------------------------
      LOOP:  cpu time   10.3656: real time   10.4487

 eigenvalue-minimisations  :     0
 total energy-change (2. order) :-0.1899144E+00  (-0.9003855E-01)
 number of electron     216.0000000 magnetization 
 augmentation part       -0.4155281 magnetization 

 Free energy of the ion-electron system (eV)
  ---------------------------------------------------
  alpha Z        PSCENC =        47.94900195
  Ewald energy   TEWEN  =     40658.92799854
  -Hartree energ DENC   =    -47634.75388880
  -exchange      EXHF   =         0.00000000
  -V(xc)+E(xc)   XCENC  =       444.17947567
  PAW double counting   =    108128.68705339  -107835.16438587
  entropy T*S    EENTRO =        -0.00000000
  eigenvalues    EBANDS =     -2642.11213506
  atomic energy  EATOM  =      8415.03548706
  ---------------------------------------------------
  free energy    TOTEN  =      -417.25139310 eV

  energy without entropy =     -417.25139310  energy(sigma->0) =     -417.25139310


--------------------------------------------------------------------------------------------------------




--------------------------------------- Iteration      1(  11)  ---------------------------------------


    POTLOK:  cpu time    4.2391: real time    4.2756
    SETDIJ:  cpu time    0.0531: real time    0.0533
    TRIAL :  cpu time    1.1623: real time    1.1734
    CORREC:  cpu time    4.7115: real time    4.7485
    CHARGE:  cpu time    0.1770: real time    0.1790
    --------------------------------------------
      LOOP:  cpu time   10.4277: real time   10.5173

 eigenvalue-minimisations  :     0
 total energy-change (2. order) :-0.8954919E-01  (-0.3721508E-01)
 number of electron     216.0000000 magnetization 
 augmentation part       -0.4149874 magnetization 

 Free energy of the ion-electron system (eV)
  ---------------------------------------------------
  alpha Z        PSCENC =        47.94900195
  Ewald energy   TEWEN  =     40658.92799854
  -Hartree energ DENC   =    -47627.82545895
  -exchange      EXHF   =         0.00000000
  -V(xc)+E(xc)   XCENC  =       444.08984129
  PAW double counting   =    107652.71306103  -107359.19569391
  entropy T*S    EENTRO =        -0.00000000
  eigenvalues    EBANDS =     -2649.03517931
  atomic energy  EATOM  =      8415.03548706
  ---------------------------------------------------
  free energy    TOTEN  =      -417.34094229 eV

  energy without entropy =     -417.34094229  energy(sigma->0) =     -417.34094229


--------------------------------------------------------------------------------------------------------




--------------------------------------- Iteration      1(  12)  ---------------------------------------


    POTLOK:  cpu time    4.2449: real time    4.2748
    SETDIJ:  cpu time    0.0534: real time    0.0536
    TRIAL :  cpu time    1.1546: real time    1.1672
    CORREC:  cpu time    4.6985: real time    4.7352
    CHARGE:  cpu time    0.1774: real time    0.1792
    --------------------------------------------
      LOOP:  cpu time   10.3793: real time   10.4726

 eigenvalue-minimisations  :     0
 total energy-change (2. order) :-0.3709297E-01  (-0.1145990E-01)
 number of electron     216.0000000 magnetization 
 augmentation part       -0.4147292 magnetization 

 Free energy of the ion-electron system (eV)
  ---------------------------------------------------
  alpha Z        PSCENC =        47.94900195
  Ewald energy   TEWEN  =     40658.92799854
  -Hartree energ DENC   =    -47624.21142435
  -exchange      EXHF   =         0.00000000
  -V(xc)+E(xc)   XCENC  =       444.00259621
  PAW double counting   =    107280.49844206  -106986.99852818
  entropy T*S    EENTRO =        -0.00000000
  eigenvalues    EBANDS =     -2652.58160856
  atomic energy  EATOM  =      8415.03548706
  ---------------------------------------------------
  free energy    TOTEN  =      -417.37803527 eV

  energy without entropy =     -417.37803527  energy(sigma->0) =     -417.37803527


--------------------------------------------------------------------------------------------------------




--------------------------------------- Iteration      1(  13)  ---------------------------------------


    POTLOK:  cpu time    4.2162: real time    4.2477
    SETDIJ:  cpu time    0.0530: real time    0.0532
    TRIAL :  cpu time    1.1567: real time    1.1675
    CORREC:  cpu time    4.6951: real time    4.7332
    CHARGE:  cpu time    0.1766: real time    0.1786
    --------------------------------------------
      LOOP:  cpu time   10.3540: real time   10.4517

 eigenvalue-minimisations  :     0
 total energy-change (2. order) :-0.1145301E-01  (-0.3236312E-02)
 number of electron     216.0000000 magnetization 
 augmentation part       -0.4140668 magnetization 

 Free energy of the ion-electron system (eV)
  ---------------------------------------------------
  alpha Z        PSCENC =        47.94900195
  Ewald energy   TEWEN  =     40658.92799854
  -Hartree energ DENC   =    -47624.31667353
  -exchange      EXHF   =         0.00000000
  -V(xc)+E(xc)   XCENC  =       444.00351790
  PAW double counting   =    107137.57553217  -106844.08690086
  entropy T*S    EENTRO =        -0.00000000
  eigenvalues    EBANDS =     -2652.47745151
  atomic energy  EATOM  =      8415.03548706
  ---------------------------------------------------
  free energy    TOTEN  =      -417.38948827 eV

  energy without entropy =     -417.38948827  energy(sigma->0) =     -417.38948827


--------------------------------------------------------------------------------------------------------




--------------------------------------- Iteration      1(  14)  ---------------------------------------


    POTLOK:  cpu time    4.2589: real time    4.2908
    SETDIJ:  cpu time    0.0531: real time    0.0533
    TRIAL :  cpu time    1.1693: real time    1.1802
    CORREC:  cpu time    4.7013: real time    4.7370
    CHARGE:  cpu time    0.1776: real time    0.1794
    --------------------------------------------
      LOOP:  cpu time   10.3805: real time   10.4699

 eigenvalue-minimisations  :     0
 total energy-change (2. order) :-0.3237667E-02  (-0.1128114E-02)
 number of electron     216.0000000 magnetization 
 augmentation part       -0.4136880 magnetization 

 Free energy of the ion-electron system (eV)
  ---------------------------------------------------
  alpha Z        PSCENC =        47.94900195
  Ewald energy   TEWEN  =     40658.92799854
  -Hartree energ DENC   =    -47624.28641001
  -exchange      EXHF   =         0.00000000
  -V(xc)+E(xc)   XCENC  =       444.00193857
  PAW double counting   =    107128.38830955  -106834.90369808
  entropy T*S    EENTRO =        -0.00000000
  eigenvalues    EBANDS =     -2652.50535353
  atomic energy  EATOM  =      8415.03548706
  ---------------------------------------------------
  free energy    TOTEN  =      -417.39272594 eV

  energy without entropy =     -417.39272594  energy(sigma->0) =     -417.39272594


--------------------------------------------------------------------------------------------------------




--------------------------------------- Iteration      1(  15)  ---------------------------------------


    POTLOK:  cpu time    4.2282: real time    4.2575
    SETDIJ:  cpu time    0.0532: real time    0.0534
    TRIAL :  cpu time    1.1602: real time    1.1710
    CORREC:  cpu time    4.6845: real time    4.7196
    CHARGE:  cpu time    0.1773: real time    0.1793
    --------------------------------------------
      LOOP:  cpu time   10.3700: real time   10.4500

 eigenvalue-minimisations  :     0
 total energy-change (2. order) :-0.1129996E-02  (-0.5427469E-03)
 number of electron     216.0000000 magnetization 
 augmentation part       -0.4132068 magnetization 

 Free energy of the ion-electron system (eV)
  ---------------------------------------------------
  alpha Z        PSCENC =        47.94900195
  Ewald energy   TEWEN  =     40658.92799854
  -Hartree energ DENC   =    -47623.95674778
  -exchange      EXHF   =         0.00000000
  -V(xc)+E(xc)   XCENC  =       443.98384095
  PAW double counting   =    107115.14536619  -106821.65953356
  entropy T*S    EENTRO =        -0.00000000
  eigenvalues    EBANDS =     -2652.81926929
  atomic energy  EATOM  =      8415.03548706
  ---------------------------------------------------
  free energy    TOTEN  =      -417.39385594 eV

  energy without entropy =     -417.39385594  energy(sigma->0) =     -417.39385594


--------------------------------------------------------------------------------------------------------




--------------------------------------- Iteration      1(  16)  ---------------------------------------


    POTLOK:  cpu time    4.2463: real time    4.2762
    SETDIJ:  cpu time    0.0531: real time    0.0533
    TRIAL :  cpu time    1.1567: real time    1.1676
    CORREC:  cpu time    4.6973: real time    4.7344
    CHARGE:  cpu time    0.1769: real time    0.1786
    --------------------------------------------
      LOOP:  cpu time   10.3651: real time   10.4496

 eigenvalue-minimisations  :     0
 total energy-change (2. order) :-0.5443120E-03  (-0.2811329E-03)
 number of electron     216.0000000 magnetization 
 augmentation part       -0.4130517 magnetization 

 Free energy of the ion-electron system (eV)
  ---------------------------------------------------
  alpha Z        PSCENC =        47.94900195
  Ewald energy   TEWEN  =     40658.92799854
  -Hartree energ DENC   =    -47624.38666007
  -exchange      EXHF   =         0.00000000
  -V(xc)+E(xc)   XCENC  =       443.99767064
  PAW double counting   =    107054.59657374  -106761.11265340
  entropy T*S    EENTRO =        -0.00000000
  eigenvalues    EBANDS =     -2652.40181870
  atomic energy  EATOM  =      8415.03548706
  ---------------------------------------------------
  free energy    TOTEN  =      -417.39440025 eV

  energy without entropy =     -417.39440025  energy(sigma->0) =     -417.39440025


--------------------------------------------------------------------------------------------------------




--------------------------------------- Iteration      1(  17)  ---------------------------------------


    POTLOK:  cpu time    4.2406: real time    4.2698
    SETDIJ:  cpu time    0.0532: real time    0.0533
    TRIAL :  cpu time    1.1520: real time    1.1628
    CORREC:  cpu time    4.6906: real time    4.7272
    CHARGE:  cpu time    0.1769: real time    0.1790
    --------------------------------------------
      LOOP:  cpu time   10.3564: real time   10.4436

 eigenvalue-minimisations  :     0
 total energy-change (2. order) :-0.2825003E-03  (-0.1173690E-03)
 number of electron     216.0000000 magnetization 
 augmentation part       -0.4131172 magnetization 

 Free energy of the ion-electron system (eV)
  ---------------------------------------------------
  alpha Z        PSCENC =        47.94900195
  Ewald energy   TEWEN  =     40658.92799854
  -Hartree energ DENC   =    -47624.54809418
  -exchange      EXHF   =         0.00000000
  -V(xc)+E(xc)   XCENC  =       443.99891762
  PAW double counting   =    106995.74452712  -106702.25988558
  entropy T*S    EENTRO =        -0.00000000
  eigenvalues    EBANDS =     -2652.24263529
  atomic energy  EATOM  =      8415.03548706
  ---------------------------------------------------
  free energy    TOTEN  =      -417.39468275 eV

  energy without entropy =     -417.39468275  energy(sigma->0) =     -417.39468275


--------------------------------------------------------------------------------------------------------




--------------------------------------- Iteration      1(  18)  ---------------------------------------


    POTLOK:  cpu time    4.2403: real time    4.2716
    SETDIJ:  cpu time    0.0531: real time    0.0534
    TRIAL :  cpu time    1.1604: real time    1.1713
    CORREC:  cpu time    4.7012: real time    4.7366
    CHARGE:  cpu time    0.1777: real time    0.1794
    --------------------------------------------
      LOOP:  cpu time   10.3805: real time   10.4605

 eigenvalue-minimisations  :     0
 total energy-change (2. order) :-0.1174893E-03  (-0.4628098E-04)
 number of electron     216.0000000 magnetization 
 augmentation part       -0.4133053 magnetization 

 Free energy of the ion-electron system (eV)
  ---------------------------------------------------
  alpha Z        PSCENC =        47.94900195
  Ewald energy   TEWEN  =     40658.92799854
  -Hartree energ DENC   =    -47624.61131832
  -exchange      EXHF   =         0.00000000
  -V(xc)+E(xc)   XCENC  =       444.00163412
  PAW double counting   =    106982.43524762  -106688.95016175
  entropy T*S    EENTRO =        -0.00000000
  eigenvalues    EBANDS =     -2652.18268947
  atomic energy  EATOM  =      8415.03548706
  ---------------------------------------------------
  free energy    TOTEN  =      -417.39480024 eV

  energy without entropy =     -417.39480024  energy(sigma->0) =     -417.39480024


--------------------------------------------------------------------------------------------------------




--------------------------------------- Iteration      1(  19)  ---------------------------------------


    POTLOK:  cpu time    4.2266: real time    4.2574
    SETDIJ:  cpu time    0.0531: real time    0.0533
    TRIAL :  cpu time    1.1580: real time    1.1690
    CORREC:  cpu time    4.7312: real time    4.7697
    CHARGE:  cpu time    0.1773: real time    0.1793
    --------------------------------------------
      LOOP:  cpu time   10.3850: real time   10.4976

 eigenvalue-minimisations  :     0
 total energy-change (2. order) :-0.4595089E-04  (-0.2001717E-04)
 number of electron     216.0000000 magnetization 
 augmentation part       -0.4134094 magnetization 

 Free energy of the ion-electron system (eV)
  ---------------------------------------------------
  alpha Z        PSCENC =        47.94900195
  Ewald energy   TEWEN  =     40658.92799854
  -Hartree energ DENC   =    -47624.59348529
  -exchange      EXHF   =         0.00000000
  -V(xc)+E(xc)   XCENC  =       444.00063730
  PAW double counting   =    106994.84334799  -106701.35744954
  entropy T*S    EENTRO =        -0.00000000
  eigenvalues    EBANDS =     -2652.20038420
  atomic energy  EATOM  =      8415.03548706
  ---------------------------------------------------
  free energy    TOTEN  =      -417.39484619 eV

  energy without entropy =     -417.39484619  energy(sigma->0) =     -417.39484619


--------------------------------------------------------------------------------------------------------




--------------------------------------- Iteration      1(  20)  ---------------------------------------


    POTLOK:  cpu time    4.2536: real time    4.2840
    SETDIJ:  cpu time    0.0531: real time    0.0533
    TRIAL :  cpu time    1.1568: real time    1.1677
    CORREC:  cpu time    4.6888: real time    4.7242
    CHARGE:  cpu time    0.1801: real time    0.1820
    --------------------------------------------
      LOOP:  cpu time   10.3816: real time   10.4640

 eigenvalue-minimisations  :     0
 total energy-change (2. order) :-0.1954069E-04  (-0.1029725E-04)
 number of electron     216.0000000 magnetization 
 augmentation part       -0.4134507 magnetization 

 Free energy of the ion-electron system (eV)
  ---------------------------------------------------
  alpha Z        PSCENC =        47.94900195
  Ewald energy   TEWEN  =     40658.92799854
  -Hartree energ DENC   =    -47624.62554821
  -exchange      EXHF   =         0.00000000
  -V(xc)+E(xc)   XCENC  =       444.00175923
  PAW double counting   =    107008.32432607  -106714.83837765
  entropy T*S    EENTRO =        -0.00000000
  eigenvalues    EBANDS =     -2652.16951273
  atomic energy  EATOM  =      8415.03548706
  ---------------------------------------------------
  free energy    TOTEN  =      -417.39486573 eV

  energy without entropy =     -417.39486573  energy(sigma->0) =     -417.39486573


--------------------------------------------------------------------------------------------------------




--------------------------------------- Iteration      1(  21)  ---------------------------------------


    POTLOK:  cpu time    4.2391: real time    4.2697
    SETDIJ:  cpu time    0.0533: real time    0.0535
    TRIAL :  cpu time    1.1573: real time    1.1777
    CORREC:  cpu time    4.6920: real time    4.7292
    CHARGE:  cpu time    0.1767: real time    0.1784
    --------------------------------------------
      LOOP:  cpu time   10.3664: real time   10.4606

 eigenvalue-minimisations  :     0
 total energy-change (2. order) :-0.1013493E-04  (-0.5602235E-05)
 number of electron     216.0000000 magnetization 
 augmentation part       -0.4134375 magnetization 

 Free energy of the ion-electron system (eV)
  ---------------------------------------------------
  alpha Z        PSCENC =        47.94900195
  Ewald energy   TEWEN  =     40658.92799854
  -Hartree energ DENC   =    -47624.59647274
  -exchange      EXHF   =         0.00000000
  -V(xc)+E(xc)   XCENC  =       444.00059681
  PAW double counting   =    107013.95006666  -106720.46408566
  entropy T*S    EENTRO =        -0.00000000
  eigenvalues    EBANDS =     -2652.19746850
  atomic energy  EATOM  =      8415.03548706
  ---------------------------------------------------
  free energy    TOTEN  =      -417.39487587 eV

  energy without entropy =     -417.39487587  energy(sigma->0) =     -417.39487587


--------------------------------------------------------------------------------------------------------




--------------------------------------- Iteration      1(  22)  ---------------------------------------


    POTLOK:  cpu time    4.2212: real time    4.2506
    SETDIJ:  cpu time    0.0530: real time    0.0532
    TRIAL :  cpu time    1.1558: real time    1.1668
    CORREC:  cpu time    4.7301: real time    4.7674
    CHARGE:  cpu time    0.1763: real time    0.1779
    --------------------------------------------
      LOOP:  cpu time   10.4169: real time   10.4980

 eigenvalue-minimisations  :     0
 total energy-change (2. order) :-0.5588809E-05  (-0.2907860E-05)
 number of electron     216.0000000 magnetization 
 augmentation part       -0.4134096 magnetization 

 Free energy of the ion-electron system (eV)
  ---------------------------------------------------
  alpha Z        PSCENC =        47.94900195
  Ewald energy   TEWEN  =     40658.92799854
  -Hartree energ DENC   =    -47624.57720489
  -exchange      EXHF   =         0.00000000
  -V(xc)+E(xc)   XCENC  =       444.00006006
  PAW double counting   =    107013.55170125  -106720.06585005
  entropy T*S    EENTRO =        -0.00000000
  eigenvalues    EBANDS =     -2652.21607538
  atomic energy  EATOM  =      8415.03548706
  ---------------------------------------------------
  free energy    TOTEN  =      -417.39488145 eV

  energy without entropy =     -417.39488145  energy(sigma->0) =     -417.39488145


--------------------------------------------------------------------------------------------------------




--------------------------------------- Iteration      1(  23)  ---------------------------------------


    POTLOK:  cpu time    4.2136: real time    4.2435
    SETDIJ:  cpu time    0.0532: real time    0.0534
    TRIAL :  cpu time    1.1585: real time    1.1694
    CORREC:  cpu time    4.7352: real time    4.7721
    CHARGE:  cpu time    0.1770: real time    0.1788
    --------------------------------------------
      LOOP:  cpu time   10.3802: real time   10.4635

 eigenvalue-minimisations  :     0
 total energy-change (2. order) :-0.2935281E-05  (-0.1100037E-05)
 number of electron     216.0000000 magnetization 
 augmentation part       -0.4134023 magnetization 

 Free energy of the ion-electron system (eV)
  ---------------------------------------------------
  alpha Z        PSCENC =        47.94900195
  Ewald energy   TEWEN  =     40658.92799854
  -Hartree energ DENC   =    -47624.57487147
  -exchange      EXHF   =         0.00000000
  -V(xc)+E(xc)   XCENC  =       444.00019911
  PAW double counting   =    107011.39184031  -106717.90611658
  entropy T*S    EENTRO =        -0.00000000
  eigenvalues    EBANDS =     -2652.21842332
  atomic energy  EATOM  =      8415.03548706
  ---------------------------------------------------
  free energy    TOTEN  =      -417.39488439 eV

  energy without entropy =     -417.39488439  energy(sigma->0) =     -417.39488439


--------------------------------------------------------------------------------------------------------




--------------------------------------- Iteration      1(  24)  ---------------------------------------


    POTLOK:  cpu time    4.2218: real time    4.2530
    SETDIJ:  cpu time    0.0531: real time    0.0533
    TRIAL :  cpu time    1.1571: real time    1.1688
    CORREC:  cpu time    4.7033: real time    4.7395
    CHARGE:  cpu time    0.1777: real time    0.1794
    --------------------------------------------
      LOOP:  cpu time   10.3421: real time   10.4250

 eigenvalue-minimisations  :     0
 total energy-change (2. order) :-0.1122316E-05  (-0.5066375E-06)
 number of electron     216.0000000 magnetization 
 augmentation part       -0.4133972 magnetization 

 Free energy of the ion-electron system (eV)
  ---------------------------------------------------
  alpha Z        PSCENC =        47.94900195
  Ewald energy   TEWEN  =     40658.92799854
  -Hartree energ DENC   =    -47624.56688351
  -exchange      EXHF   =         0.00000000
  -V(xc)+E(xc)   XCENC  =       444.00000964
  PAW double counting   =    107010.69786974  -106717.21210840
  entropy T*S    EENTRO =        -0.00000000
  eigenvalues    EBANDS =     -2652.22626054
  atomic energy  EATOM  =      8415.03548706
  ---------------------------------------------------
  free energy    TOTEN  =      -417.39488551 eV

  energy without entropy =     -417.39488551  energy(sigma->0) =     -417.39488551


--------------------------------------------------------------------------------------------------------




--------------------------------------- Iteration      1(  25)  ---------------------------------------


    POTLOK:  cpu time    4.2287: real time    4.2581
    SETDIJ:  cpu time    0.0532: real time    0.0534
    TRIAL :  cpu time    1.1563: real time    1.1690
    CORREC:  cpu time    4.7374: real time    4.7743
    CHARGE:  cpu time    0.1776: real time    0.1793
    --------------------------------------------
      LOOP:  cpu time   10.3686: real time   10.4639

 eigenvalue-minimisations  :     0
 total energy-change (2. order) :-0.5188049E-06  (-0.2546637E-06)
 number of electron     216.0000000 magnetization 
 augmentation part       -0.4133955 magnetization 

 Free energy of the ion-electron system (eV)
  ---------------------------------------------------
  alpha Z        PSCENC =        47.94900195
  Ewald energy   TEWEN  =     40658.92799854
  -Hartree energ DENC   =    -47624.56978478
  -exchange      EXHF   =         0.00000000
  -V(xc)+E(xc)   XCENC  =       444.00023109
  PAW double counting   =    107010.75560516  -106717.26984429
  entropy T*S    EENTRO =        -0.00000000
  eigenvalues    EBANDS =     -2652.22358077
  atomic energy  EATOM  =      8415.03548706
  ---------------------------------------------------
  free energy    TOTEN  =      -417.39488603 eV

  energy without entropy =     -417.39488603  energy(sigma->0) =     -417.39488603


--------------------------------------------------------------------------------------------------------




--------------------------------------- Iteration      1(  26)  ---------------------------------------


    POTLOK:  cpu time    4.2205: real time    4.2506
    SETDIJ:  cpu time    0.0531: real time    0.0533
    TRIAL :  cpu time    1.1566: real time    1.1674
    CORREC:  cpu time    4.6924: real time    4.7301
    CHARGE:  cpu time    0.1770: real time    0.1787
    --------------------------------------------
      LOOP:  cpu time   10.3154: real time   10.4089

 eigenvalue-minimisations  :     0
 total energy-change (2. order) :-0.2638553E-06  (-0.1275964E-06)
 number of electron     216.0000000 magnetization 
 augmentation part       -0.4133924 magnetization 

 Free energy of the ion-electron system (eV)
  ---------------------------------------------------
  alpha Z        PSCENC =        47.94900195
  Ewald energy   TEWEN  =     40658.92799854
  -Hartree energ DENC   =    -47624.57077076
  -exchange      EXHF   =         0.00000000
  -V(xc)+E(xc)   XCENC  =       444.00022078
  PAW double counting   =    107010.78499616  -106717.29921190
  entropy T*S    EENTRO =        -0.00000000
  eigenvalues    EBANDS =     -2652.22260814
  atomic energy  EATOM  =      8415.03548706
  ---------------------------------------------------
  free energy    TOTEN  =      -417.39488629 eV

  energy without entropy =     -417.39488629  energy(sigma->0) =     -417.39488629


--------------------------------------------------------------------------------------------------------




--------------------------------------- Iteration      1(  27)  ---------------------------------------


    POTLOK:  cpu time    4.2239: real time    4.2541
    SETDIJ:  cpu time    0.0533: real time    0.0535
    TRIAL :  cpu time    1.1544: real time    1.1651
    CORREC:  cpu time    4.6894: real time    4.7243
    CHARGE:  cpu time    0.1772: real time    0.1788
    --------------------------------------------
      LOOP:  cpu time   10.3173: real time   10.4070

 eigenvalue-minimisations  :     0
 total energy-change (2. order) :-0.1311564E-06  (-0.6755404E-07)
 number of electron     216.0000000 magnetization 
 augmentation part       -0.4133897 magnetization 

 Free energy of the ion-electron system (eV)
  ---------------------------------------------------
  alpha Z        PSCENC =        47.94900195
  Ewald energy   TEWEN  =     40658.92799854
  -Hartree energ DENC   =    -47624.57244919
  -exchange      EXHF   =         0.00000000
  -V(xc)+E(xc)   XCENC  =       444.00024956
  PAW double counting   =    107010.71919448  -106717.23341969
  entropy T*S    EENTRO =        -0.00000000
  eigenvalues    EBANDS =     -2652.22094915
  atomic energy  EATOM  =      8415.03548706
  ---------------------------------------------------
  free energy    TOTEN  =      -417.39488643 eV

  energy without entropy =     -417.39488643  energy(sigma->0) =     -417.39488643


--------------------------------------------------------------------------------------------------------




--------------------------------------- Iteration      1(  28)  ---------------------------------------


    POTLOK:  cpu time    4.2373: real time    4.2685
    SETDIJ:  cpu time    0.0531: real time    0.0533
    TRIAL :  cpu time    1.1640: real time    1.1795
    CORREC:  cpu time    4.6855: real time    4.7210
    EDDIAG:  cpu time    0.4386: real time    0.4435
    CHARGE:  cpu time    0.1753: real time    0.1789
[...]
      21 -86.0233      22 -86.0234      23 -86.0249      24 -86.0249      25 -86.0235
      26 -86.0235      27 -86.0236      28 -86.0243      29 -86.0234      30 -86.0235
      31 -86.0244      32 -86.0240      33 -86.0236      34 -86.0236      35 -86.0237
      36 -86.0236      37 -86.0240      38 -86.0241      39 -86.0239      40 -86.0240
      41 -86.0239      42 -86.0239      43 -86.0239      44 -86.0242      45 -86.0235
      46 -86.0235      47 -86.0235      48 -86.0236      49 -86.0241      50 -86.0239
      51 -89.9139      52-120.4313      53-120.4306
 
 
 
 E-fermi :  -4.3669     XC(G=0):  -2.2911     alpha+bet : -1.6890

 Fermi energy:        -4.3669473669

 k-point     1 :       0.0000    0.0000    0.0000
  band No.  band energies     occupation 
      1     -27.6439      2.00000
      2     -26.6503      2.00000
      3     -22.4386      2.00000
      4     -21.5021      2.00000
      5     -21.5007      2.00000
      6     -21.5005      2.00000
      7     -21.5003      2.00000
      8     -21.5000      2.00000
      9     -21.4994      2.00000
     10     -19.6627      2.00000
     11     -19.6626      2.00000
     12     -19.6624      2.00000
     13     -19.6617      2.00000
     14     -19.6612      2.00000
     15     -19.6610      2.00000
     16     -18.7676      2.00000
     17     -18.7674      2.00000
     18     -18.7670      2.00000
     19     -18.7668      2.00000
     20     -18.7660      2.00000
     21     -18.7658      2.00000
     22     -16.6067      2.00000
     23     -16.6063      2.00000
     24     -16.6057      2.00000
     25     -16.6056      2.00000
     26     -16.6050      2.00000
     27     -16.6048      2.00000
     28     -15.6279      2.00000
     29     -15.6279      2.00000
     30     -15.6269      2.00000
     31     -15.6267      2.00000
     32     -15.6264      2.00000
     33     -15.6263      2.00000
     34     -14.2790      2.00000
     35     -14.2789      2.00000
     36     -14.2782      2.00000
     37     -14.2781      2.00000
     38     -14.2780      2.00000
     39     -14.2777      2.00000
     40     -12.4871      2.00000
     41     -11.9029      2.00000
     42     -11.9027      2.00000
     43     -11.9022      2.00000
     44     -11.9022      2.00000
     45     -11.9010      2.00000
     46     -11.9008      2.00000
     47     -11.8101      2.00000
     48     -11.8099      2.00000
     49     -11.8093      2.00000
     50     -11.8092      2.00000
     51     -11.8091      2.00000
     52     -11.8089      2.00000
     53     -11.3292      2.00000
     54     -11.2665      2.00000
     55     -11.2664      2.00000
     56     -10.5956      2.00000
     57     -10.4400      2.00000
     58     -10.4398      2.00000
     59     -10.4383      2.00000
     60     -10.4379      2.00000
     61     -10.4377      2.00000
     62     -10.4376      2.00000
     63      -9.4793      2.00000
     64      -9.4782      2.00000
     65      -9.4780      2.00000
     66      -9.4778      2.00000
     67      -9.4778      2.00000
     68      -9.4773      2.00000
     69      -9.1761      2.00000
     70      -9.1748      2.00000
     71      -9.1745      2.00000
     72      -9.1743      2.00000
     73      -9.1741      2.00000
     74      -9.1737      2.00000
     75      -9.1165      2.00000
     76      -9.1162      2.00000
     77      -9.1153      2.00000
     78      -9.1152      2.00000
     79      -9.1151      2.00000
     80      -9.1143      2.00000
     81      -7.7295      2.00000
     82      -7.7294      2.00000
     83      -7.5265      2.00000
     84      -7.5248      2.00000
     85      -7.5247      2.00000
     86      -7.5244      2.00000
     87      -7.5235      2.00000
     88      -7.5234      2.00000
     89      -7.3484      2.00000
     90      -7.3482      2.00000
     91      -7.3480      2.00000
     92      -7.3476      2.00000
     93      -7.3472      2.00000
     94      -7.3469      2.00000
     95      -6.4511      2.00000
     96      -6.4509      2.00000
     97      -6.4507      2.00000
     98      -6.4506      2.00000
     99      -6.4499      2.00000
    100      -6.4497      2.00000
    101      -6.0468      2.00000
    102      -6.0446      2.00000
    103      -4.4668      2.00000
    104      -4.4664      2.00000
    105      -4.4659      2.00000
    106      -4.4658      2.00000
    107      -4.4653      2.00000
    108      -4.4653      2.00000
    109      -1.6663      0.00000
    110      -1.6661      0.00000
    111      -1.6658      0.00000
    112      -1.6658      0.00000
    113      -1.6650      0.00000
    114      -1.6647      0.00000
    115      -0.1380      0.00000
    116       0.1453      0.00000
    117       0.1949      0.00000
    118       0.1953      0.00000
    119       0.1955      0.00000
    120       0.1956      0.00000
    121       0.1960      0.00000
    122       0.1970      0.00000
    123       0.6559      0.00000
    124       1.1472      0.00000
    125       1.1514      0.00000
    126       1.1522      0.00000
    127       1.1565      0.00000
    128       1.1578      0.00000
    129       1.1585      0.00000
    130       1.3567      0.00000
    131       1.6968      0.00000
    132       1.8107      0.00000
    133       1.8457      0.00000
    134       1.8851      0.00000
    135       1.8976      0.00000
    136       1.9346      0.00000


--------------------------------------------------------------------------------------------------------


 soft charge-density along one line, spin component           1
         0         1         2         3         4         5         6         7         8         9
 total charge-density along one line
 
 pseudopotential strength for first ion, spin component:           1
 12.721  21.408   0.000   0.000   0.000   0.000   0.000   0.000
 21.408  36.024   0.000   0.000   0.000   0.000   0.000   0.000
  0.000   0.000  -3.196  -0.000   0.000  -5.729  -0.000   0.000
  0.000   0.000  -0.000  -3.199  -0.000  -0.000  -5.733  -0.000
  0.000   0.000   0.000  -0.000  -3.196   0.000  -0.000  -5.729
  0.000   0.000  -5.729  -0.000   0.000 -10.246  -0.000   0.000
  0.000   0.000  -0.000  -5.733  -0.000  -0.000 -10.252  -0.000
  0.000   0.000   0.000  -0.000  -5.729   0.000  -0.000 -10.246
 total augmentation occupancy for first ion, spin component:           1
  7.653  -2.660  -0.000  -0.002  -0.000   0.000   0.001   0.000
 -2.660   0.962   0.000   0.001   0.000  -0.000  -0.000  -0.000
 -0.000   0.000   7.069  -0.008   0.000  -2.370   0.003  -0.000
 -0.002   0.001  -0.008   3.114  -0.000   0.003  -0.813   0.000
 -0.000   0.000   0.000  -0.000   7.068  -0.000   0.000  -2.370
  0.000  -0.000  -2.370   0.003  -0.000   0.809  -0.001   0.000
  0.001  -0.000   0.003  -0.813   0.000  -0.001   0.219  -0.000
  0.000  -0.000  -0.000   0.000  -2.370   0.000  -0.000   0.809


------------------------ aborting loop because EDIFF is reached ----------------------------------------


    FORLOC:  cpu time    0.0659: real time    0.0665
    FORNL :  cpu time    0.8426: real time    0.8470
    FORCOR:  cpu time    4.2956: real time    4.3270
    OFIELD:  cpu time    0.0015: real time    0.0015

 VOLUME and BASIS-vectors are now :
 -----------------------------------------------------------------------------
  energy-cutoff  :     1000.00
  volume of cell :     3288.85
      direct lattice vectors                 reciprocal lattice vectors
    12.325000000  0.000000000  0.000000000     0.081135903  0.046843835  0.000000000
    -6.162500000 10.673763102  0.000000000     0.000000000  0.093687670  0.000000000
     0.000000000  0.000000000 25.000000000     0.000000000  0.000000000  0.040000000

  length of vectors
    12.325000000 12.325000000 25.000000000     0.093687670  0.093687670  0.040000000


 FORCES acting on ions:
    Electron-Ion                     Ewald-Force                    Non-Local-Force
 -----------------------------------------------------------------------------------------------
   0.339E+00 0.313E+00 0.101E+02   -.339E+00 -.314E+00 -.101E+02   0.395E-02 -.605E-03 0.575E-02
   0.461E+00 0.299E+00 0.109E+02   -.464E+00 -.296E+00 -.109E+02   0.216E-02 -.286E-02 -.572E-02
   0.181E+00 0.498E+00 0.107E+02   -.183E+00 -.498E+00 -.107E+02   -.321E-04 0.109E-01 -.211E-02
   0.228E+00 0.344E+00 0.126E+02   -.226E+00 -.343E+00 -.126E+02   0.112E-01 0.579E-03 -.168E-01
   0.412E+00 0.122E+00 0.106E+02   -.410E+00 -.123E+00 -.106E+02   -.117E-02 -.494E-02 0.415E-02
   0.422E+00 -.993E-01 0.107E+02   -.424E+00 0.101E+00 -.107E+02   -.657E-02 0.366E-02 -.155E-02
   0.420E+00 0.246E+00 0.128E+02   -.420E+00 -.247E+00 -.128E+02   0.109E-01 -.186E-01 -.746E-02
   0.465E+00 -.114E+00 0.140E+02   -.468E+00 0.116E+00 -.139E+02   -.808E-02 -.468E-02 -.636E-02
   -.201E+00 0.544E+00 0.111E+02   0.204E+00 -.547E+00 -.111E+02   0.805E-03 -.137E-01 -.495E-02
   -.213E+00 0.208E+00 0.130E+02   0.213E+00 -.209E+00 -.129E+02   -.248E-01 0.141E-01 0.900E-03
   0.109E+00 -.104E+00 0.100E+02   -.106E+00 0.104E+00 -.101E+02   0.403E-02 -.273E-02 0.128E-02
   0.122E+00 -.952E-01 0.993E+01   -.123E+00 0.956E-01 -.993E+01   -.614E-02 0.314E-02 0.703E-02
   0.560E-01 -.333E+00 0.147E+02   -.554E-01 0.334E+00 -.146E+02   0.256E-01 -.685E-02 -.385E-02
   0.446E-01 -.587E+00 0.124E+02   -.477E-01 0.589E+00 -.123E+02   0.286E-02 0.750E-02 -.159E-01
   -.400E+00 0.235E+00 0.102E+02   0.402E+00 -.237E+00 -.102E+02   0.762E-02 -.419E-02 0.858E-02
   -.478E+00 0.107E+00 0.102E+02   0.477E+00 -.107E+00 -.102E+02   -.929E-03 0.470E-02 -.380E-02
   -.618E-01 -.308E-01 0.952E+01   0.641E-01 0.293E-01 -.952E+01   0.569E-03 0.394E-04 0.240E-02
   0.373E-01 0.231E+00 0.953E+01   -.372E-01 -.231E+00 -.954E+01   -.238E-02 0.116E-02 0.926E-02
   -.116E+00 -.533E+00 0.111E+02   0.116E+00 0.534E+00 -.111E+02   0.538E-02 -.104E-02 -.628E-05
   -.720E-01 -.337E+00 0.102E+02   0.695E-01 0.337E+00 -.102E+02   -.703E-03 -.432E-03 -.388E-03
   0.532E+00 -.208E+00 0.118E+02   -.531E+00 0.208E+00 -.118E+02   -.246E-02 -.166E-02 -.153E-01
   0.397E+00 -.312E+00 0.112E+02   -.399E+00 0.313E+00 -.112E+02   -.707E-02 0.554E-02 -.647E-03
   -.784E-01 0.123E+00 0.143E+02   0.744E-01 -.121E+00 -.143E+02   -.986E-02 0.101E-01 -.207E-02
   -.141E+00 -.198E+00 0.143E+02   0.143E+00 0.196E+00 -.143E+02   0.118E-01 -.143E-01 -.133E-01
   0.205E+00 -.744E-01 0.101E+02   -.203E+00 0.731E-01 -.101E+02   0.387E-02 -.273E-02 -.173E-02
   0.759E-01 0.167E+00 0.995E+01   -.765E-01 -.166E+00 -.995E+01   -.450E-02 0.297E-02 0.673E-02
   -.562E+00 0.770E-02 0.115E+02   0.565E+00 -.939E-02 -.115E+02   0.129E-01 0.726E-02 -.263E-02
   -.481E+00 -.225E+00 0.110E+02   0.482E+00 0.225E+00 -.110E+02   -.761E-02 0.876E-02 -.366E-04
   0.191E+00 -.441E+00 0.112E+02   -.190E+00 0.441E+00 -.112E+02   0.359E-02 0.265E-02 -.550E-02
   0.252E-01 -.189E+00 0.103E+02   -.271E-01 0.191E+00 -.103E+02   -.506E-02 0.246E-02 -.826E-03
   -.348E+00 -.323E+00 0.118E+02   0.345E+00 0.324E+00 -.118E+02   -.112E-01 -.769E-02 -.144E-01
   -.265E+00 -.521E+00 0.108E+02   0.267E+00 0.520E+00 -.108E+02   0.541E-03 -.353E-03 0.992E-03
   0.869E-02 0.130E+00 0.980E+01   -.809E-02 -.131E+00 -.981E+01   0.441E-02 -.441E-02 0.794E-02
   0.634E-01 0.958E-01 0.990E+01   -.660E-01 -.949E-01 -.990E+01   -.254E-02 0.468E-02 0.275E-04
   -.253E+00 0.508E-01 0.997E+01   0.256E+00 -.517E-01 -.998E+01   0.435E-02 -.254E-02 0.712E-02
   -.216E+00 -.112E+00 0.992E+01   0.215E+00 0.113E+00 -.992E+01   -.320E-02 0.205E-02 0.470E-02
   -.397E+00 -.237E+00 0.999E+01   0.399E+00 0.235E+00 -.999E+01   0.123E-03 0.796E-03 0.343E-02
   -.268E+00 -.223E+00 0.975E+01   0.268E+00 0.224E+00 -.975E+01   -.314E-02 0.117E-02 0.880E-02
   -.254E+00 -.314E+00 0.987E+01   0.254E+00 0.315E+00 -.988E+01   -.244E-02 0.414E-03 0.415E-02
   -.352E-01 -.980E-01 0.966E+01   0.363E-01 0.975E-01 -.966E+01   0.168E-02 0.832E-03 0.692E-02
   0.102E+00 0.240E+00 0.956E+01   -.103E+00 -.240E+00 -.957E+01   -.373E-02 0.126E-02 0.644E-02
   0.301E+00 0.427E+00 0.995E+01   -.300E+00 -.428E+00 -.996E+01   -.115E-02 -.121E-02 0.677E-02
   0.452E-01 0.387E+00 0.969E+01   -.427E-01 -.388E+00 -.970E+01   0.552E-03 -.278E-04 0.264E-02
   0.192E-01 0.546E+00 0.104E+02   -.191E-01 -.547E+00 -.104E+02   -.727E-02 0.968E-03 0.475E-02
   -.808E-01 0.142E+00 0.101E+02   0.825E-01 -.143E+00 -.101E+02   0.429E-02 -.324E-02 0.289E-02
   -.252E+00 0.357E+00 0.103E+02   0.251E+00 -.357E+00 -.103E+02   -.533E-02 -.341E-03 -.170E-03
   -.101E+00 -.178E+00 0.102E+02   0.101E+00 0.177E+00 -.102E+02   0.553E-02 -.103E-02 0.689E-02
   -.164E+00 0.521E-01 0.978E+01   0.162E+00 -.514E-01 -.978E+01   -.387E-02 0.327E-02 -.172E-02
   0.332E-02 -.100E+00 0.977E+01   -.315E-02 0.100E+00 -.977E+01   0.369E-02 -.287E-02 0.567E-02
   0.165E+00 0.124E+00 0.972E+01   -.167E+00 -.122E+00 -.973E+01   -.107E-02 0.191E-02 0.344E-02
   -.484E-02 0.302E-01 -.134E+03   0.529E-03 -.264E-01 0.134E+03   -.288E-02 0.188E-02 -.179E-02
   -.229E+03 0.156E+03 -.214E+03   0.279E+03 -.190E+03 0.217E+03   -.512E+02 0.348E+02 -.343E+01
   0.229E+03 -.156E+03 -.192E+03   -.279E+03 0.190E+03 0.189E+03   0.512E+02 -.348E+02 0.309E+01
 -----------------------------------------------------------------------------------------------
   -.751E-02 0.140E-01 0.342E+00   0.114E-12 -.114E-12 0.341E-12   0.745E-02 -.141E-01 -.344E+00
 
 
 POSITION                                       TOTAL-FORCE (eV/Angst)
 -----------------------------------------------------------------------------------
     11.98348      0.00342      0.01417         0.003310     -0.001686     -0.001005
     -0.34154      1.42665      0.01100        -0.000496     -0.000078     -0.003338
      2.12355      0.00315      0.01249        -0.001784      0.011002     -0.006308
      2.12326      1.42653      0.00641         0.013608      0.001312     -0.008377
     10.75099      2.13819      0.01213         0.000484     -0.005799     -0.000125
     -1.57382      3.56123      0.01110        -0.008987      0.004724     -0.001403
      0.89078      2.13854      0.00548         0.009825     -0.019273      0.002247
      0.89099      3.56147      0.00181        -0.011691     -0.002577      0.011408
      4.58864      0.00346      0.01135         0.003538     -0.015721     -0.003510
      4.58894      1.42623      0.00646        -0.023923      0.013510      0.013484
      9.51854      4.27281      0.01369         0.006561     -0.003100      0.000205
     -2.80632      5.69591      0.01434        -0.006654      0.003431      0.000685
      2.12300      4.27302      0.00000         0.025403     -0.005216      0.019902
      2.12335      5.69594      0.00581        -0.000423      0.009011     -0.002635
      7.05344      0.00333      0.01399         0.009400     -0.005290     -0.000427
      7.05353      1.42635      0.01368        -0.001842      0.005071     -0.003646
      8.28610      6.40752      0.01601         0.002848     -0.001446     -0.000775
     -4.03885      7.83070      0.01636        -0.002282      0.000902     -0.000132
      3.35586      6.40753      0.01007         0.005644      0.000450     -0.001264
      3.35599      7.83072      0.01320        -0.003113     -0.000055     -0.000652
     -0.34146      4.27290      0.00723        -0.001713     -0.001584     -0.004415
     -0.34138      5.69591      0.00946        -0.009195      0.006545     -0.001098
      3.35624      2.13791      0.00222        -0.013779      0.012113      0.015400
      3.35573      3.56155      0.00139         0.013761     -0.016152      0.008070
     -1.57395      6.40758      0.01311         0.005381     -0.003945     -0.000557
     -1.57385      7.83068      0.01438        -0.004937      0.003821     -0.000005
      5.82093      2.13784      0.01033         0.015917      0.005258     -0.003005
      5.82114      3.56097      0.01156        -0.006563      0.008671     -0.003634
      0.89092      6.40755      0.00907         0.004722      0.002253     -0.002210
      0.89106      7.83068      0.01235        -0.006833      0.003909      0.000390
      4.58871      4.27293      0.00850        -0.013172     -0.006583     -0.010741
      4.58852      5.69606      0.01149         0.002006     -0.001318     -0.003959
      9.51845      0.00337      0.01490         0.004868     -0.004730      0.000107
      9.51855      1.42644      0.01438        -0.005125      0.005439     -0.000269
      8.28593      2.13803      0.01453         0.006777     -0.003388      0.000588
      8.28613      3.56115      0.01464        -0.004456      0.002279     -0.000032
      7.05356      4.27269      0.01457         0.002490     -0.001102     -0.000605
      7.05362      5.69588      0.01553        -0.002571      0.001570     -0.000115
      5.82112      6.40755      0.01489        -0.003045      0.001563     -0.000043
      5.82102      7.83073      0.01579         0.002753      0.000238     -0.000327
      7.05363      8.54227      0.01631        -0.004706      0.001346      0.001061
     -5.27149      9.96549      0.01495         0.000241     -0.001980     -0.002158
     -2.80638      8.54234      0.01558         0.003071     -0.001270     -0.001150
     -2.80627      9.96553      0.01362        -0.006967      0.000011     -0.003767
     -0.34149      8.54239      0.01378         0.005801     -0.004936      0.000246
     -0.34138      9.96550      0.01354        -0.006047      0.000026     -0.001181
      2.12343      8.54232      0.01336         0.005993     -0.001571      0.000671
      2.12354      9.96544      0.01469        -0.005134      0.003829     -0.001800
      4.58846      8.54235      0.01505         0.003761     -0.002822      0.000985
      4.58853      9.96550      0.01517        -0.002688      0.003343      0.000125
      3.04930      2.68154      9.43874        -0.007042      0.005659      0.033519
      4.02070      2.02068      9.50316        -0.557709      0.379041     -0.052893
      2.07767      3.34267      9.37929         0.564716     -0.384703      0.018466
 -----------------------------------------------------------------------------------
    total drift:                               -0.000056     -0.000071     -0.001413


--------------------------------------------------------------------------------------------------------



  FREE ENERGIE OF THE ION-ELECTRON SYSTEM (eV)
  ---------------------------------------------------
  free  energy   TOTEN  =      -417.39488649 eV

  energy  without entropy=     -417.39488649  energy(sigma->0) =     -417.39488649
 


--------------------------------------------------------------------------------------------------------


    POTLOK:  cpu time    4.2821: real time    4.3129


--------------------------------------------------------------------------------------------------------


 writing wavefunctions
     LOOP+:  cpu time  295.0386: real time  297.7582
    4ORBIT:  cpu time    0.0000: real time    0.0000

 total amount of memory used by VASP MPI-rank0   100580. kBytes
=======================================================================

   base      :      30000. kBytes
   nonl-proj :       8229. kBytes
   fftplans  :      18352. kBytes
   grid      :      30208. kBytes
   one-center:          6. kBytes
   wavefun   :      13785. kBytes
 
  
  
 General timing and accounting informations for this job:
 ========================================================
  
                  Total CPU time used (sec):      339.290
                            User time (sec):      312.310
                          System time (sec):       26.979
                         Elapsed time (sec):      343.108
  
                   Maximum memory used (kb):      818132.
                   Average memory used (kb):          N/A
  
                          Minor page faults:       453602
                          Major page faults:           70
                 Voluntary context switches:         3858
