 vasp.6.2.1 16May21 (build Nov 06 2021 14:46:37) complex                        
  
 executed on             LinuxIFC date 2025.04.16  16:58:17
 running on  112 total cores
 distrk:  each k-point on  112 cores,    1 groups
 distr:  one band on NCORE=  28 cores,    4 groups


--------------------------------------------------------------------------------------------------------


 INCAR:
   ALGO = Conjugate
   NPAR = 4
   ISMEAR = 0
   SIGMA = 0.01
   PREC = Accurate
   EDIFF = 1E-7
   ENCUT = 1000
   ISIF = 0
   GGA = MK
   PARAM1 = 0.1234
   PARAM2 = 1.0000
   LUSE_VDW = .TRUE.
   AGGAC = 0.0000
   LASPH = .TRUE.
   SYMPREC = 1E-7

 POTCAR:    PAW_PBE C_h 06Feb2004                 
 POTCAR:    PAW_PBE O_h 06Feb2004                 
 -----------------------------------------------------------------------------
|                                                                             |
|           W    W    AA    RRRRR   N    N  II  N    N   GGGG   !!!           |
|           W    W   A  A   R    R  NN   N  II  NN   N  G    G  !!!           |
|           W    W  A    A  R    R  N N  N  II  N N  N  G       !!!           |
|           W WW W  AAAAAA  RRRRR   N  N N  II  N  N N  G  GGG   !            |
|           WW  WW  A    A  R   R   N   NN  II  N   NN  G    G                |
|           W    W  A    A  R    R  N    N  II  N    N   GGGG   !!!           |
|                                                                             |
|     For optimal performance we recommend to set                             |
|       NCORE = 2 up to number-of-cores-per-socket                            |
|     NCORE specifies how many cores store one orbital (NPAR=cpu/NCORE).      |
|     This setting can greatly improve the performance of VASP for DFT.       |
|     The default, NCORE=1 might be grossly inefficient on modern             |
|     multi-core architectures or massively parallel machines. Do your        |
|     own testing! More info at https://www.vasp.at/wiki/index.php/NCORE      |
|     Unfortunately you need to use the default for GW and RPA                |
|     calculations (for HF NCORE is supported but not extensively tested      |
|     yet).                                                                   |
|                                                                             |
 -----------------------------------------------------------------------------

 -----------------------------------------------------------------------------
|                                                                             |
|               ----> ADVICE to this user running VASP <----                  |
|                                                                             |
|     You have switched on vdW-DFT.                                           |
|     This routine was written and supplied by Jiri Klimes. We recommend      |
|     that you carefully read and cite the following publications:            |
|       J. Klimes, D.R. Bowler, A. Michelides                                 |
|          J. Phys.: Cond Matt. 22 022201 (2010)                              |
|       J. Klimes, D.R. Bowler, A. Michelides                                 |
|          Phys. Rev. B. 83, 195131 (2011)                                    |
|     and references therein.                                                 |
|                                                                             |
 -----------------------------------------------------------------------------

 POTCAR:    PAW_PBE C_h 06Feb2004                 
   VRHFIN =C: s2p2                                                                                  
   LEXCH  = PE                                                                                      
   EATOM  =   147.1560 eV,   10.8157 Ry                                                             
                                                                                                    
   TITEL  = PAW_PBE C_h 06Feb2004                                                                   
   LULTRA =        F    use ultrasoft PP ?                                                          
   IUNSCR =        1    unscreen: 0-lin 1-nonlin 2-no                                               
   RPACOR =    0.800    partial core radius                                                         
   POMASS =   12.011; ZVAL   =    4.000    mass and valenz                                          
   RCORE  =    1.100    outmost cutoff radius                                                       
   RWIGS  =    1.630; RWIGS  =    0.863    wigner-seitz radius (au A)                               
   ENMAX  =  700.000; ENMIN  =  500.000 eV                                                          
   ICORE  =        2    local potential                                                             
   LCOR   =        T    correct aug charges                                                         
   LPAW   =        T    paw PP                                                                      
   EAUG   =  946.768                                                                                
   DEXC   =    0.000                                                                                
   RMAX   =    1.128    core radius for proj-oper                                                   
   RAUG   =    1.300    factor for augmentation sphere                                              
   RDEP   =    1.162    radius for radial grids                                                     
   RDEPT  =    1.088    core radius for aug-charge                                                  
                                                                                                    
   Atomic configuration                                                                             
    4 entries                                                                                       
     n  l   j            E        occ.                                                              
     1  0  0.50      -273.3789   2.0000                                                             
     2  0  0.50       -13.7508   2.0000                                                             
     2  1  0.50        -5.2854   2.0000                                                             
     3  2  1.50        -5.4423   0.0000                                                             
   Description                                                                                      
     l       E           TYP  RCUT    TYP  RCUT                                                     
     0    -13.7508458     23  1.100                                                                 
     0     -8.2022199     23  1.100                                                                 
     1     -5.2854383     23  1.100                                                                 
     1      1.1560700     23  1.100                                                                 
     2     -5.4423304      7  1.100                                                                 
  local pseudopotential read in
  partial core-charges read in
  partial kinetic energy density read in
  atomic valenz-charges read in
  non local Contribution for L=           0  read in
    real space projection operators read in
  non local Contribution for L=           0  read in
    real space projection operators read in
  non local Contribution for L=           1  read in
    real space projection operators read in
  non local Contribution for L=           1  read in
    real space projection operators read in
    PAW grid and wavefunctions read in
 
   number of l-projection  operators is LMAX  =           4
   number of lm-projection operators is LMMAX =           8
 
 POTCAR:    PAW_PBE O_h 06Feb2004                 
   VRHFIN =O: s2p4                                                                                  
   LEXCH  = PE                                                                                      
   EATOM  =   432.3788 eV,   31.7789 Ry                                                             
                                                                                                    
   TITEL  = PAW_PBE O_h 06Feb2004                                                                   
   LULTRA =        F    use ultrasoft PP ?                                                          
   IUNSCR =        1    unscreen: 0-lin 1-nonlin 2-no                                               
   RPACOR =    0.800    partial core radius                                                         
   POMASS =   16.000; ZVAL   =    6.000    mass and valenz                                          
   RCORE  =    1.100    outmost cutoff radius                                                       
   RWIGS  =    1.400; RWIGS  =    0.741    wigner-seitz radius (au A)                               
   ENMAX  =  700.000; ENMIN  =  500.000 eV                                                          
   ICORE  =        2    local potential                                                             
   LCOR   =        T    correct aug charges                                                         
   LPAW   =        T    paw PP                                                                      
   EAUG   =  888.804                                                                                
   DEXC   =    0.000                                                                                
   RMAX   =    1.128    core radius for proj-oper                                                   
   RAUG   =    1.300    factor for augmentation sphere                                              
   RDEP   =    1.125    radius for radial grids                                                     
   RDEPT  =    1.088    core radius for aug-charge                                                  
                                                                                                    
   Atomic configuration                                                                             
    4 entries                                                                                       
     n  l   j            E        occ.                                                              
     1  0  0.50      -514.6923   2.0000                                                             
     2  0  0.50       -23.9615   2.0000                                                             
     2  1  0.50        -9.0305   4.0000                                                             
     3  2  1.50        -9.5241   0.0000                                                             
   Description                                                                                      
     l       E           TYP  RCUT    TYP  RCUT                                                     
     0    -23.9615319     23  1.100                                                                 
     0    -25.3221145     23  1.100                                                                 
     1     -9.0304911     23  1.100                                                                 
     1     -5.4802209     23  1.100                                                                 
     2     -9.5240782      7  1.100                                                                 
  local pseudopotential read in
  partial core-charges read in
  partial kinetic energy density read in
  atomic valenz-charges read in
  non local Contribution for L=           0  read in
    real space projection operators read in
  non local Contribution for L=           0  read in
    real space projection operators read in
  non local Contribution for L=           1  read in
    real space projection operators read in
  non local Contribution for L=           1  read in
    real space projection operators read in
    PAW grid and wavefunctions read in
 
   number of l-projection  operators is LMAX  =           4
   number of lm-projection operators is LMMAX =           8
 
 -----------------------------------------------------------------------------
|                                                                             |
|               ----> ADVICE to this user running VASP <----                  |
|                                                                             |
|     You have a (more or less) 'large supercell' and for larger cells it     |
|     might be more efficient to use real-space projection operators.         |
|     Therefore, try LREAL= Auto in the INCAR file.                           |
|     Mind: For very accurate calculation, you might also keep the            |
|     reciprocal projection scheme (i.e. LREAL=.FALSE.).                      |
|                                                                             |
 -----------------------------------------------------------------------------

 -----------------------------------------------------------------------------
|                                                                             |
|               ----> ADVICE to this user running VASP <----                  |
|                                                                             |
|     You enforced a specific xc type in the INCAR file but a different       |
|     type was found in the POTCAR file.                                      |
|     I HOPE YOU KNOW WHAT YOU ARE DOING!                                     |
|                                                                             |
 -----------------------------------------------------------------------------

  PAW_PBE C_h 06Feb2004                 :
 energy of atom  1       EATOM= -147.1560
 kinetic energy error for atom=    0.0031 (will be added to EATOM!!)
  PAW_PBE O_h 06Feb2004                 :
 energy of atom  2       EATOM= -432.3788
 kinetic energy error for atom=    0.0171 (will be added to EATOM!!)
 
 
 POSCAR:  C  O
  positions in cartesian coordinates
  No initial velocities read in
 exchange correlation table for  LEXCH =       43
   RHO(1)=    0.500       N(1)  =     2000
   RHO(2)=  100.500       N(2)  =     4000
 


--------------------------------------------------------------------------------------------------------


 ion  position               nearest neighbor table
   1  0.972  0.000  0.001-  50 1.42   2 1.42  42 1.42
   2  0.039  0.134  0.000-   5 1.42   7 1.42   1 1.42
   3  0.172  0.000  0.000-  42 1.42  44 1.42   4 1.42
   4  0.239  0.134  0.000-   7 1.42   3 1.42  23 1.42
   5  0.972  0.200  0.000-   6 1.42   2 1.42  34 1.42
   6  0.039  0.334  0.000-   5 1.42  21 1.42  11 1.42
   7  0.172  0.200  0.000-   8 1.42   2 1.42   4 1.42
   8  0.239  0.334  0.000-  13 1.42   7 1.42  21 1.42
   9  0.372  0.000  0.000-  10 1.42  44 1.42  46 1.42
  10  0.439  0.134  0.000-  27 1.42   9 1.42  23 1.42
  11  0.972  0.400  0.001-  12 1.42  36 1.42   6 1.42
  12  0.039  0.534  0.001-  25 1.42  11 1.42  17 1.42
  13  0.372  0.400  0.000-   8 1.42  14 1.42  24 1.42
  14  0.439  0.534  0.000-  13 1.42  29 1.42  19 1.42
  15  0.572  0.000  0.001-  46 1.42  16 1.42  48 1.42
  16  0.639  0.134  0.001-  15 1.42  35 1.42  27 1.42
  17  0.972  0.600  0.001-  38 1.42  18 1.42  12 1.42
  18  0.039  0.734  0.001-  43 1.42  41 1.42  17 1.42
  19  0.572  0.600  0.000-  14 1.42  20 1.42  32 1.42
  20  0.639  0.734  0.001-  49 1.42  19 1.42  47 1.42
  21  0.172  0.400  0.000-  22 1.42   8 1.42   6 1.42
  22  0.239  0.534  0.000-  21 1.42  29 1.42  25 1.42
  23  0.372  0.200  0.000-  10 1.42   4 1.42  24 1.42
  24  0.439  0.334  0.000-  13 1.42  31 1.42  23 1.42
  25  0.172  0.600  0.001-  26 1.42  12 1.42  22 1.42
  26  0.239  0.734  0.001-  25 1.42  45 1.42  43 1.42
  27  0.572  0.200  0.000-  10 1.42  28 1.42  16 1.42
  28  0.639  0.334  0.000-  27 1.42  37 1.42  31 1.42
  29  0.372  0.600  0.000-  22 1.42  14 1.42  30 1.42
  30  0.439  0.734  0.000-  47 1.42  29 1.42  45 1.42
  31  0.572  0.400  0.000-  32 1.42  28 1.42  24 1.42
  32  0.639  0.534  0.000-  31 1.42  39 1.42  19 1.42
  33  0.772  0.000  0.001-  34 1.42  48 1.42  50 1.42
  34  0.839  0.134  0.001-  33 1.42   5 1.42  35 1.42
  35  0.772  0.200  0.001-  36 1.42  16 1.42  34 1.42
  36  0.839  0.334  0.001-  35 1.42  11 1.42  37 1.42
  37  0.772  0.400  0.001-  28 1.42  38 1.42  36 1.42
  38  0.839  0.534  0.001-  17 1.42  37 1.42  39 1.42
  39  0.772  0.600  0.001-  40 1.42  38 1.42  32 1.42
  40  0.839  0.734  0.001-  39 1.42  49 1.42  41 1.42
  41  0.972  0.800  0.001-  18 1.42  42 1.42  40 1.42
  42  0.039  0.934  0.001-   3 1.42  41 1.42   1 1.42
  43  0.172  0.800  0.001-  18 1.42  44 1.42  26 1.42
  44  0.239  0.934  0.001-   9 1.42  43 1.42   3 1.42
  45  0.372  0.800  0.001-  26 1.42  46 1.42  30 1.42
  46  0.439  0.934  0.001-  15 1.42  45 1.42   9 1.42
  47  0.572  0.800  0.001-  30 1.42  48 1.42  20 1.42
  48  0.639  0.934  0.001-  47 1.42  33 1.42  15 1.42
  49  0.772  0.800  0.001-  50 1.42  20 1.42  40 1.42
  50  0.839  0.934  0.001-  49 1.42   1 1.42  33 1.42
  51  0.373  0.251  0.112-  52 1.18  53 1.18
  52  0.421  0.189  0.115-  51 1.18
  53  0.325  0.313  0.110-  51 1.18
 
  LATTYP: Found a hexagonal cell.
 ALAT       =    12.3250000000
 C/A-ratio  =     2.0283975659
  
  Lattice vectors:
  
 A1 = (  12.3250000000,   0.0000000000,   0.0000000000)
 A2 = (  -6.1625000000,  10.6737631016,   0.0000000000)
 A3 = (   0.0000000000,   0.0000000000,  25.0000000000)


Analysis of symmetry for initial positions (statically):
=====================================================================
 Subroutine PRICEL returns:
 Original cell was already a primitive cell.
 

 Routine SETGRP: Setting up the symmetry group for a 
 hexagonal supercell.


 Subroutine GETGRP returns: Found  1 space group operations
 (whereof  1 operations were pure point group operations)
 out of a pool of 24 trial point group operations.


The static configuration has the point symmetry C_1 .


Analysis of symmetry for dynamics (positions and initial velocities):
=====================================================================
 Subroutine PRICEL returns:
 Original cell was already a primitive cell.
 

 Routine SETGRP: Setting up the symmetry group for a 
 hexagonal supercell.


 Subroutine GETGRP returns: Found  1 space group operations
 (whereof  1 operations were pure point group operations)
 out of a pool of 24 trial point group operations.


The dynamic configuration has the point symmetry C_1 .


 Subroutine INISYM returns: Found  1 space group operations
 (whereof  1 operations are pure point group operations),
 and found     1 'primitive' translations


----------------------------------------------------------------------------------------

                                     Primitive cell                                     

  volume of cell :    3288.8533

  direct lattice vectors                    reciprocal lattice vectors
    12.325000000  0.000000000  0.000000000     0.081135903  0.046843835  0.000000000
    -6.162500000 10.673763102  0.000000000     0.000000000  0.093687670  0.000000000
     0.000000000  0.000000000 25.000000000     0.000000000  0.000000000  0.040000000

  length of vectors
    12.325000000 12.325000000 25.000000000     0.093687670  0.093687670  0.040000000

  position of ions in fractional coordinates (direct lattice)
     0.972450841  0.000320818  0.000566711
     0.039118382  0.133659505  0.000440173
     0.172443627  0.000295449  0.000499628
     0.239096278  0.133647917  0.000256468
     0.972452058  0.200322012  0.000485219
     0.039128360  0.333643771  0.000444150
     0.172451764  0.200354552  0.000219167
     0.239124359  0.333665720  0.000072260
     0.372465565  0.000324403  0.000453913
     0.439137473  0.133619939  0.000258338
     0.972449824  0.400309362  0.000547611
     0.039124981  0.533636789  0.000573410
     0.372416176  0.400329481  0.000000000
     0.439099602  0.533638981  0.000232414
     0.572443676  0.000312125  0.000559580
     0.639110207  0.133631751  0.000547275
     0.972452703  0.600305653  0.000640289
     0.039124495  0.733640359  0.000654513
     0.572433471  0.600306242  0.000402895
     0.639111888  0.733641879  0.000527905
     0.172454630  0.400318228  0.000289045
     0.239120185  0.533636548  0.000378509
     0.372459750  0.200295993  0.000088997
     0.439107096  0.333673419  0.000055762
     0.172452155  0.600311506  0.000524340
     0.239123371  0.733638574  0.000575129
     0.572431082  0.200289171  0.000413296
     0.639112773  0.333618630  0.000462376
     0.372439808  0.600308022  0.000362844
     0.439116090  0.733637858  0.000494190
     0.572469358  0.400320504  0.000339918
     0.639119408  0.533650873  0.000459610
     0.772445723  0.000315427  0.000596161
     0.839116277  0.133640203  0.000575306
     0.772440513  0.200307432  0.000581033
     0.839120241  0.333635728  0.000585467
     0.772446320  0.400298367  0.000582978
     0.839118980  0.533633964  0.000621100
     0.772456143  0.600308173  0.000595712
     0.839115033  0.733643180  0.000631512
     0.972455313  0.800305582  0.000652233
     0.039114714  0.933643289  0.000598051
     0.172457971  0.800312211  0.000623372
     0.239134551  0.933647193  0.000544850
     0.372451396  0.800316674  0.000551399
     0.439124489  0.933644769  0.000541430
     0.572441101  0.800310054  0.000534535
     0.639115067  0.933638985  0.000587644
     0.772445098  0.800313187  0.000602062
     0.839116614  0.933644338  0.000606830
     0.373021009  0.251226878  0.112246205
     0.420879805  0.189313152  0.114823079
     0.325156981  0.313167186  0.109868010

  ion indices of the primitive-cell ions
   primitive index   ion index
                 1           1
                 2           2
                 3           3
                 4           4
                 5           5
                 6           6
                 7           7
                 8           8
                 9           9
                10          10
                11          11
                12          12
                13          13
                14          14
                15          15
                16          16
                17          17
                18          18
                19          19
                20          20
                21          21
                22          22
                23          23
                24          24
                25          25
                26          26
                27          27
                28          28
                29          29
                30          30
                31          31
                32          32
                33          33
                34          34
                35          35
                36          36
                37          37
                38          38
                39          39
                40          40
                41          41
                42          42
                43          43
                44          44
                45          45
                46          46
                47          47
                48          48
                49          49
                50          50
                51          51
                52          52
                53          53

----------------------------------------------------------------------------------------

 
 
 KPOINTS: auto                                    

Automatic generation of k-mesh.
 Grid dimensions read from file:
 generate k-points for:    1    1    1

 Generating k-lattice:

  Cartesian coordinates                     Fractional coordinates (reciprocal lattice)
     0.081135903  0.046843835  0.000000000     1.000000000 -0.000000000  0.000000000
     0.000000000  0.093687670  0.000000000     0.000000000  1.000000000  0.000000000
     0.000000000  0.000000000  0.040000000     0.000000000  0.000000000  1.000000000

  Length of vectors
     0.093687670  0.093687670  0.040000000

  Shift w.r.t. Gamma in fractional coordinates (k-lattice)
     0.000000000  0.000000000  0.000000000

 
 Subroutine IBZKPT returns following result:
 ===========================================
 
 Found      1 irreducible k-points:
 
 Following reciprocal coordinates:
            Coordinates               Weight
  0.000000  0.000000  0.000000      1.000000
 
 Following cartesian coordinates:
            Coordinates               Weight
  0.000000  0.000000  0.000000      1.000000
 


--------------------------------------------------------------------------------------------------------




 Dimension of arrays:
   k-points           NKPTS =      1   k-points in BZ     NKDIM =      1   number of bands    NBANDS=    136
   number of dos      NEDOS =    301   number of ions     NIONS =     53
   non local maximal  LDIM  =      4   non local SUM 2l+1 LMDIM =      8
   total plane-waves  NPLWV = ******
   max r-space proj   IRMAX =      1   max aug-charges    IRDMAX=  10008
   dimension x,y,z NGX =   128 NGY =  128 NGZ =  270
   dimension x,y,z NGXF=   256 NGYF=  256 NGZF=  540
   support grid    NGXF=   256 NGYF=  256 NGZF=  540
   ions per type =              51   2
   NGX,Y,Z   is equivalent  to a cutoff of  17.27, 17.27, 17.95 a.u.
   NGXF,Y,Z  is equivalent  to a cutoff of  34.53, 34.53, 35.91 a.u.

 SYSTEM =  unknown system                          
 POSCAR =   C  O                                   

 Startparameter for this run:
   NWRITE =      2    write-flag & timer
   PREC   = accura    normal or accurate (medium, high low for compatibility)
   ISTART =      0    job   : 0-new  1-cont  2-samecut
   ICHARG =      2    charge: 1-file 2-atom 10-const
   ISPIN  =      1    spin polarized calculation?
   LNONCOLLINEAR =      F non collinear calculations
   LSORBIT =      F    spin-orbit coupling
   INIWAV =      1    electr: 0-lowe 1-rand  2-diag
   LASPH  =      T    aspherical Exc in radial PAW
 Electronic Relaxation 1
   ENCUT  = 1000.0 eV  73.50 Ry    8.57 a.u.  31.78 31.78 64.46*2*pi/ulx,y,z
   ENINI  = 1000.0     initial cutoff
   ENAUG  =  946.8 eV  augmentation charge cutoff
   NELM   =     60;   NELMIN=  2; NELMDL= -5     # of ELM steps 
   EDIFF  = 0.1E-06   stopping-criterion for ELM
   LREAL  =      F    real-space projection
   NLSPLINE    = F    spline interpolate recip. space projectors
   LCOMPAT=      F    compatible to vasp.4.4
   GGA_COMPAT  = T    GGA compatible to vasp.4.4-vasp.4.6
   LMAXPAW     = -100 max onsite density
   LMAXMIX     =    2 max onsite mixed and CHGCAR
   VOSKOWN=      0    Vosko Wilk Nusair interpolation
   ROPT   =    0.00000   0.00000
 Ionic relaxation
   EDIFFG = 0.1E-05   stopping-criterion for IOM
   NSW    =      0    number of steps for IOM
   NBLOCK =      1;   KBLOCK =      1    inner block; outer block 
   IBRION =     -1    ionic relax: 0-MD 1-quasi-New 2-CG
   NFREE  =      0    steps in history (QN), initial steepest desc. (CG)
   ISIF   =      0    stress and relaxation
   IWAVPR =     10    prediction:  0-non 1-charg 2-wave 3-comb
   ISYM   =      2    0-nonsym 1-usesym 2-fastsym
   LCORR  =      T    Harris-Foulkes like correction to forces

   POTIM  = 0.5000    time-step for ionic-motion
   TEIN   =    0.0    initial temperature
   TEBEG  =    0.0;   TEEND  =   0.0 temperature during run
   SMASS  =  -3.00    Nose mass-parameter (am)
   estimated Nose-frequenzy (Omega)   =  0.10E-29 period in steps = 0.13E+47 mass=  -0.347E-26a.u.
   SCALEE = 1.0000    scale energy and forces
   NPACO  =    256;   APACO  = 16.0  distance and # of slots for P.C.
   PSTRESS=    0.0 pullay stress

  Mass of Ions in am
   POMASS =  12.01 16.00
  Ionic Valenz
   ZVAL   =   4.00  6.00
  Atomic Wigner-Seitz radii
   RWIGS  =  -1.00 -1.00
  virtual crystal weights 
   VCA    =   1.00  1.00
   NELECT =     216.0000    total number of electrons
   NUPDOWN=      -1.0000    fix difference up-down

 DOS related values:
   EMIN   =  10.00;   EMAX   =-10.00  energy-range for DOS
   EFERMI =   0.00
   ISMEAR =     0;   SIGMA  =   0.01  broadening in eV -4-tet -1-fermi 0-gaus

 Electronic relaxation 2 (details)
   IALGO  =     58    algorithm
   LDIAG  =      T    sub-space diagonalisation (order eigenvalues)
   LSUBROT=      F    optimize rotation matrix (better conditioning)
   TURBO    =      0    0=normal 1=particle mesh
   IRESTART =      0    0=no restart 2=restart with 2 vectors
   NREBOOT  =      0    no. of reboots
   NMIN     =      0    reboot dimension
   EREF     =   0.00    reference energy to select bands
   IMIX   =      4    mixing-type and parameters
     AMIX     =   0.40;   BMIX     =  1.00
     AMIX_MAG =   1.60;   BMIX_MAG =  1.00
     AMIN     =   0.10
     WC   =   100.;   INIMIX=   1;  MIXPRE=   1;  MAXMIX= -45

 Intra band minimization:
   WEIMIN = 0.0000     energy-eigenvalue tresh-hold
   EBREAK =  0.18E-09  absolut break condition
   DEPER  =   0.30     relativ break condition  

   TIME   =   0.40     timestep for ELM

  volume/ion in A,a.u.               =      62.05       418.76
  Fermi-wavevector in a.u.,A,eV,Ry     =   0.660508  1.248179  5.935820  0.436270
  Thomas-Fermi vector in A             =   1.732977
 
 Write flags
   LWAVE        =      T    write WAVECAR
   LDOWNSAMPLE  =      F    k-point downsampling of WAVECAR
   LCHARG       =      T    write CHGCAR
   LVTOT        =      F    write LOCPOT, total local potential
   LVHAR        =      F    write LOCPOT, Hartree potential only
   LELF         =      F    write electronic localiz. function (ELF)
   LORBIT       =      0    0 simple, 1 ext, 2 COOP (PROOUT), +10 PAW based schemes


 Dipole corrections
   LMONO  =      F    monopole corrections only (constant potential shift)
   LDIPOL =      F    correct potential (dipole corrections)
   IDIPOL =      0    1-x, 2-y, 3-z, 4-all directions 
   EPSILON=  1.0000000 bulk dielectric constant

 Exchange correlation treatment:
   GGA     =    MK    GGA type
   LEXCH   =    43    internal setting for exchange type
   VOSKOWN=      0    Vosko Wilk Nusair interpolation
   LHFCALC =     F    Hartree Fock is set to
   LHFONE  =     F    Hartree Fock one center treatment
   AEXX    =    0.0000 exact exchange contribution

 vdW DFT:
   LUSE_VDW   =     T    switch on vdW DFT
   Zab_VDW    =-.8491    correlation parameter
   PARAM1     =0.1234
   PARAM2     =1.0000
   PARAM3     =0.0000
   -- rVV10 --
   BPARAM     = 6.3000
   CPARAM     = 0.0093

 Linear response parameters
   LEPSILON=     F    determine dielectric tensor
   LRPA    =     F    only Hartree local field effects (RPA)
   LNABLA  =     F    use nabla operator in PAW spheres
   LVEL    =     F    velocity operator in full k-point grid
   LINTERFAST=   F  fast interpolation
   KINTER  =     0    interpolate to denser k-point grid
   CSHIFT  =0.1000    complex shift for real part using Kramers Kronig
   OMEGAMAX=  -1.0    maximum frequency
   DEG_THRESHOLD= 0.2000000E-02 threshold for treating states as degnerate
   RTIME   =   -0.100 relaxation time in fs
  (WPLASMAI=    0.000 imaginary part of plasma frequency in eV, 0.658/RTIME)
   DFIELD  = 0.0000000 0.0000000 0.0000000 field for delta impulse in time
 
 Orbital magnetization related:
   ORBITALMAG=     F  switch on orbital magnetization
   LCHIMAG   =     F  perturbation theory with respect to B field
   DQ        =  0.001000  dq finite difference perturbation B field
   LLRAUG    =     F  two centre corrections for induced B field



--------------------------------------------------------------------------------------------------------


 Static calculation
 charge density and potential will be updated during run
 non-spin polarized calculation
 Conjugate gradient for all bands (Freysoldt, et al. PRB 79, 241103 (2009))
 preconditioned conjugated gradient                                        
 perform sub-space diagonalisation
    before iterative eigenvector-optimisation
 modified Broyden-mixing scheme, WC =      100.0
 initial mixing is a Kerker type mixing with AMIX =  0.4000 and BMIX =      1.0000
 Hartree-type preconditioning will be used
 using additional bands           28
 reciprocal scheme for non local part
 use partial core corrections
 no Harris-corrections to forces 
 use gradient corrections 
 use of overlap-Matrix (Vanderbilt PP)
 Gauss-broadening in eV      SIGMA  =   0.01


--------------------------------------------------------------------------------------------------------


  energy-cutoff  :     1000.00
  volume of cell :     3288.85
      direct lattice vectors                 reciprocal lattice vectors
    12.325000000  0.000000000  0.000000000     0.081135903  0.046843835  0.000000000
    -6.162500000 10.673763102  0.000000000     0.000000000  0.093687670  0.000000000
     0.000000000  0.000000000 25.000000000     0.000000000  0.000000000  0.040000000

  length of vectors
    12.325000000 12.325000000 25.000000000     0.093687670  0.093687670  0.040000000


 
 k-points in units of 2pi/SCALE and weight: auto                                    
   0.00000000  0.00000000  0.00000000       1.000
 
 k-points in reciprocal lattice and weights: auto                                    
   0.00000000  0.00000000  0.00000000       1.000
 
 position of ions in fractional coordinates (direct lattice) 
   0.97245084  0.00032082  0.00056671
   0.03911838  0.13365950  0.00044017
   0.17244363  0.00029545  0.00049963
   0.23909628  0.13364792  0.00025647
   0.97245206  0.20032201  0.00048522
   0.03912836  0.33364377  0.00044415
   0.17245176  0.20035455  0.00021917
   0.23912436  0.33366572  0.00007226
   0.37246557  0.00032440  0.00045391
   0.43913747  0.13361994  0.00025834
   0.97244982  0.40030936  0.00054761
   0.03912498  0.53363679  0.00057341
   0.37241618  0.40032948  0.00000000
   0.43909960  0.53363898  0.00023241
   0.57244368  0.00031213  0.00055958
   0.63911021  0.13363175  0.00054727
   0.97245270  0.60030565  0.00064029
   0.03912449  0.73364036  0.00065451
   0.57243347  0.60030624  0.00040289
   0.63911189  0.73364188  0.00052791
   0.17245463  0.40031823  0.00028904
   0.23912018  0.53363655  0.00037851
   0.37245975  0.20029599  0.00008900
   0.43910710  0.33367342  0.00005576
   0.17245216  0.60031151  0.00052434
   0.23912337  0.73363857  0.00057513
   0.57243108  0.20028917  0.00041330
   0.63911277  0.33361863  0.00046238
   0.37243981  0.60030802  0.00036284
   0.43911609  0.73363786  0.00049419
   0.57246936  0.40032050  0.00033992
   0.63911941  0.53365087  0.00045961
   0.77244572  0.00031543  0.00059616
   0.83911628  0.13364020  0.00057531
   0.77244051  0.20030743  0.00058103
   0.83912024  0.33363573  0.00058547
   0.77244632  0.40029837  0.00058298
   0.83911898  0.53363396  0.00062110
   0.77245614  0.60030817  0.00059571
   0.83911503  0.73364318  0.00063151
   0.97245531  0.80030558  0.00065223
   0.03911471  0.93364329  0.00059805
   0.17245797  0.80031221  0.00062337
   0.23913455  0.93364719  0.00054485
   0.37245140  0.80031667  0.00055140
   0.43912449  0.93364477  0.00054143
   0.57244110  0.80031005  0.00053453
   0.63911507  0.93363899  0.00058764
   0.77244510  0.80031319  0.00060206
   0.83911661  0.93364434  0.00060683
   0.37302101  0.25122688  0.11224620
   0.42087980  0.18931315  0.11482308
   0.32515698  0.31316719  0.10986801
 
 position of ions in cartesian coordinates  (Angst):
  11.98347958  0.00342433  0.01416777
  -0.34154264  1.42664989  0.01100432
   2.12354700  0.00315355  0.01249070
   2.12325634  1.42652621  0.00641170
  10.75098721  2.13818970  0.01213047
  -1.57382270  3.56123457  0.01110375
   0.89078307  2.13853702  0.00547917
   0.89099273  3.56146885  0.00180651
   4.58863896  0.00346260  0.01134782
   4.58893648  1.42622757  0.00645846
   9.51853763  4.27280730  0.01369027
  -2.80632132  5.69591267  0.01433526
   2.12299894  4.27302204  0.00000000
   2.12335237  5.69593607  0.00581036
   7.05344483  0.00333155  0.01398950
   7.05352764  1.42635365  0.01368187
   8.28609598  6.40752033  0.01600723
  -4.03884931  7.83070339  0.01636283
   3.35585531  6.40752662  0.01007237
   3.35598594  7.83071962  0.01319763
  -0.34145776  4.27290193  0.00722612
  -0.34137895  5.69591010  0.00946273
   3.35624236  2.13791198  0.00222492
   3.35573251  3.56155103  0.00139405
  -1.57394684  6.40758280  0.01310850
  -1.57385216  7.83068434  0.01437823
   5.82093107  2.13783916  0.01033241
   5.82114012  3.56096622  0.01155939
   0.89092245  6.40754561  0.00907111
   0.89106251  7.83067670  0.01235474
   4.58870974  4.27292622  0.00849795
   4.58852320  5.69606300  0.01149026
   9.51844972  0.00336679  0.01490402
   9.51855036  1.42644387  0.01438264
   8.28593477  2.13803408  0.01452582
   8.28612680  3.56114872  0.01463668
   7.05356221  4.27268994  0.01457444
   7.05362213  5.69588251  0.01552751
   5.82112285  6.40754723  0.01489279
   5.82101669  7.83073350  0.01578780
   7.05362858  8.54227219  0.01630582
  -5.27148792  9.96548729  0.01495127
  -2.80637951  8.54234295  0.01558431
  -2.80626749  9.96552896  0.01362126
  -0.34148805  8.54239058  0.01378498
  -0.34137657  9.96550309  0.01353576
   2.12342586  8.54231992  0.01336337
   2.12354296  9.96544135  0.01469111
   4.58845581  8.54235337  0.01505154
   4.58852904  9.96549848  0.01517076
   3.04929830  2.68153618  2.80615512
   4.02070129  2.02068374  2.87057698
   2.07766701  3.34267235  2.74670025
 


--------------------------------------------------------------------------------------------------------


 k-point   1 :   0.0000 0.0000 0.0000  plane waves:  236157

 maximum and minimum number of plane-waves per node :      8440     8428

 maximum number of plane-waves:    236157
 maximum index in each direction: 
   IXMAX=   31   IYMAX=   31   IZMAX=   64
   IXMIN=  -31   IYMIN=  -31   IZMIN=  -64


 parallel 3D FFT for wavefunctions:
    minimum data exchange during FFTs selected (reduces bandwidth)
 parallel 3D FFT for charge:
    minimum data exchange during FFTs selected (reduces bandwidth)


 total amount of memory used by VASP MPI-rank0   100580. kBytes
=======================================================================

   base      :      30000. kBytes
   nonl-proj :       8229. kBytes
   fftplans  :      18352. kBytes
   grid      :      30208. kBytes
   one-center:          6. kBytes
   wavefun   :      13785. kBytes
 
     INWAV:  cpu time    0.0000: real time    0.0000
 Broyden mixing: mesh for mixing (old mesh)
   NGX = 63   NGY = 63   NGZ =129
  (NGX  =256   NGY  =256   NGZ  =540)
  gives a total of 512001 points

 initial charge density was supplied:
 charge density of overlapping atoms calculated
 number of electron     216.0000000 magnetization 
 keeping initial charge density in first step


--------------------------------------------------------------------------------------------------------


 Maximum index for augmentation-charges          471 (set IRDMAX)


--------------------------------------------------------------------------------------------------------


 First call to EWALD:  gamma=   0.119
 Maximum number of real-space cells 4x 4x 2
 Maximum number of reciprocal cells 2x 2x 4

    FEWALD:  cpu time    0.0025: real time    0.0026


--------------------------------------- Iteration      1(   1)  ---------------------------------------


vdW kernel read from vdw_kernel.bindat
  0.0000  0.2424  0.5071  0.7962  1.1119  1.4567  1.8333  2.2446  2.6937  3.1842
  3.7199  4.3049  4.9438  5.6415  6.4036  7.2358  8.1446  9.1372 10.2212 11.4050
 12.6979 14.1099 15.6519 17.3360 19.1751 21.1837 23.3773 25.7729 28.3892 31.2465
 34.3669 37.7748 41.4965 45.5611 50.0000
 
    POTLOK:  cpu time    4.5136: real time    4.5729
    SETDIJ:  cpu time    0.0556: real time    0.0558
    TRIAL :  cpu time    2.0688: real time    2.0895
    CORREC:  cpu time    0.0004: real time    0.0004
    --------------------------------------------
      LOOP:  cpu time    6.6412: real time    6.7455

 eigenvalue-minimisations  :   288
 total energy-change (2. order) : 0.2767322E+04  (-0.1019669E+05)
 number of electron     216.0000000 magnetization 
 augmentation part      216.0000000 magnetization 

 Free energy of the ion-electron system (eV)
  ---------------------------------------------------
  alpha Z        PSCENC =        47.94900195
  Ewald energy   TEWEN  =     48114.18302124
  -Hartree energ DENC   =    -54181.92891958
  -exchange      EXHF   =         0.00000000
  -V(xc)+E(xc)   XCENC  =       414.53228783
  PAW double counting   =      6552.85433684    -6257.21772958
  entropy T*S    EENTRO =        -0.00000000
  eigenvalues    EBANDS =      -338.08516523
  atomic energy  EATOM  =      8415.03548706
  ---------------------------------------------------
  free energy    TOTEN  =      2767.32232053 eV

  energy without entropy =     2767.32232053  energy(sigma->0) =     2767.32232053


--------------------------------------------------------------------------------------------------------




--------------------------------------- Iteration      1(   2)  ---------------------------------------


    TRIAL :  cpu time    2.8545: real time    2.8807
    CORREC:  cpu time    0.0001: real time    0.0003
    --------------------------------------------
      LOOP:  cpu time    2.9244: real time    2.9553

 eigenvalue-minimisations  :   448
 total energy-change (2. order) :-0.2322632E+04  (-0.2174678E+04)
 number of electron     216.0000000 magnetization 
 augmentation part      216.0000000 magnetization 

 Free energy of the ion-electron system (eV)
  ---------------------------------------------------
  alpha Z        PSCENC =        47.94900195
  Ewald energy   TEWEN  =     48114.18302124
  -Hartree energ DENC   =    -54181.92891958
  -exchange      EXHF   =         0.00000000
  -V(xc)+E(xc)   XCENC  =       414.53228783
  PAW double counting   =      6552.85433684    -6257.21772958
  entropy T*S    EENTRO =        -0.00000000
  eigenvalues    EBANDS =     -2660.71687820
  atomic energy  EATOM  =      8415.03548706
  ---------------------------------------------------
  free energy    TOTEN  =       444.69060756 eV

  energy without entropy =      444.69060756  energy(sigma->0) =      444.69060756


--------------------------------------------------------------------------------------------------------




--------------------------------------- Iteration      1(   3)  ---------------------------------------


    TRIAL :  cpu time    2.3671: real time    2.3886
    CORREC:  cpu time    0.0001: real time    0.0001
    --------------------------------------------
      LOOP:  cpu time    2.4144: real time    2.4391

 eigenvalue-minimisations  :   352
 total energy-change (2. order) :-0.8157097E+03  (-0.8012925E+03)
 number of electron     216.0000000 magnetization 
 augmentation part      216.0000000 magnetization 

 Free energy of the ion-electron system (eV)
  ---------------------------------------------------
  alpha Z        PSCENC =        47.94900195
  Ewald energy   TEWEN  =     48114.18302124
  -Hartree energ DENC   =    -54181.92891958
  -exchange      EXHF   =         0.00000000
  -V(xc)+E(xc)   XCENC  =       414.53228783
  PAW double counting   =      6552.85433684    -6257.21772958
  entropy T*S    EENTRO =        -0.00000000
  eigenvalues    EBANDS =     -3476.42661673
  atomic energy  EATOM  =      8415.03548706
  ---------------------------------------------------
  free energy    TOTEN  =      -371.01913097 eV

  energy without entropy =     -371.01913097  energy(sigma->0) =     -371.01913097


--------------------------------------------------------------------------------------------------------




--------------------------------------- Iteration      1(   4)  ---------------------------------------


    TRIAL :  cpu time    2.2938: real time    2.3202
    CORREC:  cpu time    0.0001: real time    0.0001
    --------------------------------------------
      LOOP:  cpu time    2.3672: real time    2.3982

 eigenvalue-minimisations  :   336
 total energy-change (2. order) :-0.7659457E+02  (-0.7546030E+02)
 number of electron     216.0000000 magnetization 
 augmentation part      216.0000000 magnetization 

 Free energy of the ion-electron system (eV)
  ---------------------------------------------------
  alpha Z        PSCENC =        47.94900195
  Ewald energy   TEWEN  =     48114.18302124
  -Hartree energ DENC   =    -54181.92891958
  -exchange      EXHF   =         0.00000000
  -V(xc)+E(xc)   XCENC  =       414.53228783
  PAW double counting   =      6552.85433684    -6257.21772958
  entropy T*S    EENTRO =        -0.00000000
  eigenvalues    EBANDS =     -3553.02118823
  atomic energy  EATOM  =      8415.03548706
  ---------------------------------------------------
  free energy    TOTEN  =      -447.61370247 eV

  energy without entropy =     -447.61370247  energy(sigma->0) =     -447.61370247


--------------------------------------------------------------------------------------------------------




--------------------------------------- Iteration      1(   5)  ---------------------------------------


    TRIAL :  cpu time    2.4167: real time    2.4370
    CORREC:  cpu time    0.0001: real time    0.0001
    CHARGE:  cpu time    0.1805: real time    0.1823
    --------------------------------------------
      LOOP:  cpu time    2.6213: real time    2.6471

 eigenvalue-minimisations  :   360
 total energy-change (2. order) :-0.2221728E+01  (-0.2205077E+01)
 number of electron     216.0000000 magnetization 
 augmentation part       -0.2540764 magnetization 

 Free energy of the ion-electron system (eV)
  ---------------------------------------------------
  alpha Z        PSCENC =        47.94900195
  Ewald energy   TEWEN  =     48114.18302124
  -Hartree energ DENC   =    -54181.92891958
  -exchange      EXHF   =         0.00000000
  -V(xc)+E(xc)   XCENC  =       414.53228783
  PAW double counting   =      6552.85433684    -6257.21772958
  entropy T*S    EENTRO =        -0.00000000
  eigenvalues    EBANDS =     -3555.24291587
  atomic energy  EATOM  =      8415.03548706
  ---------------------------------------------------
  free energy    TOTEN  =      -449.83543011 eV

  energy without entropy =     -449.83543011  energy(sigma->0) =     -449.83543011


--------------------------------------------------------------------------------------------------------




--------------------------------------- Iteration      1(   6)  ---------------------------------------


    POTLOK:  cpu time    4.2019: real time    4.2393
    SETDIJ:  cpu time    0.0542: real time    0.0545
    TRIAL :  cpu time    1.1549: real time    1.1726
    CORREC:  cpu time    4.6776: real time    4.7339
    CHARGE:  cpu time    0.1777: real time    0.1804
    --------------------------------------------
      LOOP:  cpu time   10.3236: real time   10.4423

 eigenvalue-minimisations  :     0
 total energy-change (2. order) : 0.5041233E+02  (-0.1558782E+02)
 number of electron     216.0000000 magnetization 
 augmentation part       -0.3444432 magnetization 

 Free energy of the ion-electron system (eV)
  ---------------------------------------------------
  alpha Z        PSCENC =        47.94900195
  Ewald energy   TEWEN  =     48114.18302124
  -Hartree energ DENC   =    -55616.49115030
  -exchange      EXHF   =         0.00000000
  -V(xc)+E(xc)   XCENC  =       461.50119232
  PAW double counting   =     86225.90375183   -85935.20295541
  entropy T*S    EENTRO =        -0.00000000
  eigenvalues    EBANDS =     -2112.30144759
  atomic energy  EATOM  =      8415.03548706
  ---------------------------------------------------
  free energy    TOTEN  =      -399.42309889 eV

  energy without entropy =     -399.42309889  energy(sigma->0) =     -399.42309889


--------------------------------------------------------------------------------------------------------




--------------------------------------- Iteration      1(   7)  ---------------------------------------


    POTLOK:  cpu time    4.2030: real time    4.2490
    SETDIJ:  cpu time    0.0544: real time    0.0546
    TRIAL :  cpu time    1.1556: real time    1.1662
    CORREC:  cpu time    4.7054: real time    4.7407
    CHARGE:  cpu time    0.1787: real time    0.1804
    --------------------------------------------
      LOOP:  cpu time   10.3902: real time   10.4865

 eigenvalue-minimisations  :     0
 total energy-change (2. order) :-0.1561921E+02  (-0.1701616E+01)
 number of electron     216.0000000 magnetization 
 augmentation part       -0.3892368 magnetization 

 Free energy of the ion-electron system (eV)
  ---------------------------------------------------
  alpha Z        PSCENC =        47.94900195
  Ewald energy   TEWEN  =     48114.18302124
  -Hartree energ DENC   =    -55094.67521538
  -exchange      EXHF   =         0.00000000
  -V(xc)+E(xc)   XCENC  =       444.75911564
  PAW double counting   =    101401.15660026  -101108.07861770
  entropy T*S    EENTRO =        -0.00000000
  eigenvalues    EBANDS =     -2635.37170535
  atomic energy  EATOM  =      8415.03548706
  ---------------------------------------------------
  free energy    TOTEN  =      -415.04231226 eV

  energy without entropy =     -415.04231226  energy(sigma->0) =     -415.04231226


--------------------------------------------------------------------------------------------------------




--------------------------------------- Iteration      1(   8)  ---------------------------------------


    POTLOK:  cpu time    4.2232: real time    4.2530
    SETDIJ:  cpu time    0.0542: real time    0.0544
    TRIAL :  cpu time    1.1557: real time    1.1663
    CORREC:  cpu time    4.6938: real time    4.7461
    CHARGE:  cpu time    0.1779: real time    0.1797
    --------------------------------------------
      LOOP:  cpu time   10.3727: real time   10.4705

 eigenvalue-minimisations  :     0
 total energy-change (2. order) :-0.1702071E+01  (-0.4654707E+00)
 number of electron     216.0000000 magnetization 
 augmentation part       -0.4055101 magnetization 

 Free energy of the ion-electron system (eV)
  ---------------------------------------------------
  alpha Z        PSCENC =        47.94900195
  Ewald energy   TEWEN  =     48114.18302124
  -Hartree energ DENC   =    -55079.86667075
  -exchange      EXHF   =         0.00000000
  -V(xc)+E(xc)   XCENC  =       444.37305164
  PAW double counting   =    105310.91191281  -105017.57366951
  entropy T*S    EENTRO =        -0.00000000
  eigenvalues    EBANDS =     -2651.75651765
  atomic energy  EATOM  =      8415.03548706
  ---------------------------------------------------
  free energy    TOTEN  =      -416.74438320 eV

  energy without entropy =     -416.74438320  energy(sigma->0) =     -416.74438320


--------------------------------------------------------------------------------------------------------




--------------------------------------- Iteration      1(   9)  ---------------------------------------


    POTLOK:  cpu time    4.2324: real time    4.2620
    SETDIJ:  cpu time    0.0543: real time    0.0545
    TRIAL :  cpu time    1.1548: real time    1.1651
    CORREC:  cpu time    4.7034: real time    4.7386
    CHARGE:  cpu time    0.1782: real time    0.1800
    --------------------------------------------
      LOOP:  cpu time   10.3817: real time   10.4628

 eigenvalue-minimisations  :     0
 total energy-change (2. order) :-0.4652023E+00  (-0.1755317E+00)
 number of electron     216.0000000 magnetization 
 augmentation part       -0.4135003 magnetization 

 Free energy of the ion-electron system (eV)
  ---------------------------------------------------
  alpha Z        PSCENC =        47.94900195
  Ewald energy   TEWEN  =     48114.18302124
  -Hartree energ DENC   =    -55092.27474777
  -exchange      EXHF   =         0.00000000
  -V(xc)+E(xc)   XCENC  =       444.49403601
  PAW double counting   =    107766.74194062  -107473.29045161
  entropy T*S    EENTRO =        -0.00000000
  eigenvalues    EBANDS =     -2640.04787297
  atomic energy  EATOM  =      8415.03548706
  ---------------------------------------------------
  free energy    TOTEN  =      -417.20958546 eV

  energy without entropy =     -417.20958546  energy(sigma->0) =     -417.20958546


--------------------------------------------------------------------------------------------------------




--------------------------------------- Iteration      1(  10)  ---------------------------------------


    POTLOK:  cpu time    4.2141: real time    4.2482
    SETDIJ:  cpu time    0.0543: real time    0.0545
    TRIAL :  cpu time    1.1525: real time    1.1646
    CORREC:  cpu time    4.6916: real time    4.7464
    CHARGE:  cpu time    0.1783: real time    0.1803
    --------------------------------------------
      LOOP:  cpu time   10.4120: real time   10.5197

 eigenvalue-minimisations  :     0
 total energy-change (2. order) :-0.1750538E+00  (-0.8290309E-01)
 number of electron     216.0000000 magnetization 
 augmentation part       -0.4147261 magnetization 

 Free energy of the ion-electron system (eV)
  ---------------------------------------------------
  alpha Z        PSCENC =        47.94900195
  Ewald energy   TEWEN  =     48114.18302124
  -Hartree energ DENC   =    -55088.63060518
  -exchange      EXHF   =         0.00000000
  -V(xc)+E(xc)   XCENC  =       444.35951451
  PAW double counting   =    108146.64386738  -107853.12381836
  entropy T*S    EENTRO =        -0.00000000
  eigenvalues    EBANDS =     -2643.80110785
  atomic energy  EATOM  =      8415.03548706
  ---------------------------------------------------
  free energy    TOTEN  =      -417.38463924 eV

  energy without entropy =     -417.38463924  energy(sigma->0) =     -417.38463924


--------------------------------------------------------------------------------------------------------




--------------------------------------- Iteration      1(  11)  ---------------------------------------


    POTLOK:  cpu time    4.1951: real time    4.2352
    SETDIJ:  cpu time    0.0567: real time    0.0569
    TRIAL :  cpu time    1.1533: real time    1.1648
    CORREC:  cpu time    4.7028: real time    4.7454
    CHARGE:  cpu time    0.1770: real time    0.1787
    --------------------------------------------
      LOOP:  cpu time   10.3540: real time   10.4553

 eigenvalue-minimisations  :     0
 total energy-change (2. order) :-0.8236255E-01  (-0.3364060E-01)
 number of electron     216.0000000 magnetization 
 augmentation part       -0.4145570 magnetization 

 Free energy of the ion-electron system (eV)
  ---------------------------------------------------
  alpha Z        PSCENC =        47.94900195
  Ewald energy   TEWEN  =     48114.18302124
  -Hartree energ DENC   =    -55082.18064620
  -exchange      EXHF   =         0.00000000
  -V(xc)+E(xc)   XCENC  =       444.26253923
  PAW double counting   =    107669.78858487  -107376.27492254
  entropy T*S    EENTRO =        -0.00000000
  eigenvalues    EBANDS =     -2650.23006740
  atomic energy  EATOM  =      8415.03548706
  ---------------------------------------------------
  free energy    TOTEN  =      -417.46700179 eV

  energy without entropy =     -417.46700179  energy(sigma->0) =     -417.46700179


--------------------------------------------------------------------------------------------------------




--------------------------------------- Iteration      1(  12)  ---------------------------------------


    POTLOK:  cpu time    4.2289: real time    4.2594
    SETDIJ:  cpu time    0.0541: real time    0.0543
    TRIAL :  cpu time    1.1536: real time    1.1644
    CORREC:  cpu time    4.7060: real time    4.7507
    CHARGE:  cpu time    0.1783: real time    0.1800
    --------------------------------------------
      LOOP:  cpu time   10.3654: real time   10.4553

 eigenvalue-minimisations  :     0
 total energy-change (2. order) :-0.3352312E-01  (-0.1072171E-01)
 number of electron     216.0000000 magnetization 
 augmentation part       -0.4144641 magnetization 

 Free energy of the ion-electron system (eV)
  ---------------------------------------------------
  alpha Z        PSCENC =        47.94900195
  Ewald energy   TEWEN  =     48114.18302124
  -Hartree energ DENC   =    -55078.79974333
  -exchange      EXHF   =         0.00000000
  -V(xc)+E(xc)   XCENC  =       444.19359970
  PAW double counting   =    107335.86132516  -107042.36643162
  entropy T*S    EENTRO =        -0.00000000
  eigenvalues    EBANDS =     -2653.55678508
  atomic energy  EATOM  =      8415.03548706
  ---------------------------------------------------
  free energy    TOTEN  =      -417.50052492 eV

  energy without entropy =     -417.50052492  energy(sigma->0) =     -417.50052492


--------------------------------------------------------------------------------------------------------




--------------------------------------- Iteration      1(  13)  ---------------------------------------


    POTLOK:  cpu time    4.2381: real time    4.2680
    SETDIJ:  cpu time    0.0543: real time    0.0545
    TRIAL :  cpu time    1.1743: real time    1.1849
    CORREC:  cpu time    4.6679: real time    4.7113
    CHARGE:  cpu time    0.1782: real time    0.1798
    --------------------------------------------
      LOOP:  cpu time   10.3620: real time   10.4520

 eigenvalue-minimisations  :     0
 total energy-change (2. order) :-0.1071328E-01  (-0.3435609E-02)
 number of electron     216.0000000 magnetization 
 augmentation part       -0.4138434 magnetization 

 Free energy of the ion-electron system (eV)
  ---------------------------------------------------
  alpha Z        PSCENC =        47.94900195
  Ewald energy   TEWEN  =     48114.18302124
  -Hartree energ DENC   =    -55078.21070260
  -exchange      EXHF   =         0.00000000
  -V(xc)+E(xc)   XCENC  =       444.17905379
  PAW double counting   =    107227.80892584  -106934.32311595
  entropy T*S    EENTRO =        -0.00000000
  eigenvalues    EBANDS =     -2654.13290953
  atomic energy  EATOM  =      8415.03548706
  ---------------------------------------------------
  free energy    TOTEN  =      -417.51123819 eV

  energy without entropy =     -417.51123819  energy(sigma->0) =     -417.51123819


--------------------------------------------------------------------------------------------------------




--------------------------------------- Iteration      1(  14)  ---------------------------------------


    POTLOK:  cpu time    4.2154: real time    4.2458
    SETDIJ:  cpu time    0.0542: real time    0.0544
    TRIAL :  cpu time    1.1553: real time    1.1664
    CORREC:  cpu time    4.6813: real time    4.7262
    CHARGE:  cpu time    0.1779: real time    0.1797
    --------------------------------------------
      LOOP:  cpu time   10.2983: real time   10.4244

 eigenvalue-minimisations  :     0
 total energy-change (2. order) :-0.3437528E-02  (-0.1534061E-02)
 number of electron     216.0000000 magnetization 
 augmentation part       -0.4133861 magnetization 

 Free energy of the ion-electron system (eV)
  ---------------------------------------------------
  alpha Z        PSCENC =        47.94900195
  Ewald energy   TEWEN  =     48114.18302124
  -Hartree energ DENC   =    -55078.31445291
  -exchange      EXHF   =         0.00000000
  -V(xc)+E(xc)   XCENC  =       444.18187845
  PAW double counting   =    107227.37073999  -106933.88952988
  entropy T*S    EENTRO =        -0.00000000
  eigenvalues    EBANDS =     -2654.03082162
  atomic energy  EATOM  =      8415.03548706
  ---------------------------------------------------
  free energy    TOTEN  =      -417.51467572 eV

  energy without entropy =     -417.51467572  energy(sigma->0) =     -417.51467572


--------------------------------------------------------------------------------------------------------




--------------------------------------- Iteration      1(  15)  ---------------------------------------


    POTLOK:  cpu time    4.2104: real time    4.2416
    SETDIJ:  cpu time    0.0544: real time    0.0545
    TRIAL :  cpu time    1.1681: real time    1.1791
    CORREC:  cpu time    4.7041: real time    4.7533
    CHARGE:  cpu time    0.1782: real time    0.1799
    --------------------------------------------
      LOOP:  cpu time   10.3751: real time   10.4714

 eigenvalue-minimisations  :     0
 total energy-change (2. order) :-0.1537153E-02  (-0.9652594E-03)
 number of electron     216.0000000 magnetization 
 augmentation part       -0.4128366 magnetization 

 Free energy of the ion-electron system (eV)
  ---------------------------------------------------
  alpha Z        PSCENC =        47.94900195
  Ewald energy   TEWEN  =     48114.18302124
  -Hartree energ DENC   =    -55077.96971344
  -exchange      EXHF   =         0.00000000
  -V(xc)+E(xc)   XCENC  =       444.16622705
  PAW double counting   =    107219.13560194  -106925.65327650
  entropy T*S    EENTRO =        -0.00000000
  eigenvalues    EBANDS =     -2654.36256218
  atomic energy  EATOM  =      8415.03548706
  ---------------------------------------------------
  free energy    TOTEN  =      -417.51621288 eV

  energy without entropy =     -417.51621288  energy(sigma->0) =     -417.51621288


--------------------------------------------------------------------------------------------------------




--------------------------------------- Iteration      1(  16)  ---------------------------------------


    POTLOK:  cpu time    4.1994: real time    4.2295
    SETDIJ:  cpu time    0.0544: real time    0.0546
    TRIAL :  cpu time    1.1527: real time    1.1651
    CORREC:  cpu time    4.7370: real time    4.7745
    CHARGE:  cpu time    0.1779: real time    0.1799
    --------------------------------------------
      LOOP:  cpu time   10.3462: real time   10.4784

 eigenvalue-minimisations  :     0
 total energy-change (2. order) :-0.9676782E-03  (-0.5441160E-03)
 number of electron     216.0000000 magnetization 
 augmentation part       -0.4126888 magnetization 

 Free energy of the ion-electron system (eV)
  ---------------------------------------------------
  alpha Z        PSCENC =        47.94900195
  Ewald energy   TEWEN  =     48114.18302124
  -Hartree energ DENC   =    -55078.46678543
  -exchange      EXHF   =         0.00000000
  -V(xc)+E(xc)   XCENC  =       444.18031722
  PAW double counting   =    107152.31272559  -106858.83172972
  entropy T*S    EENTRO =        -0.00000000
  eigenvalues    EBANDS =     -2653.87921847
  atomic energy  EATOM  =      8415.03548706
  ---------------------------------------------------
  free energy    TOTEN  =      -417.51718055 eV

  energy without entropy =     -417.51718055  energy(sigma->0) =     -417.51718055


--------------------------------------------------------------------------------------------------------




--------------------------------------- Iteration      1(  17)  ---------------------------------------


    POTLOK:  cpu time    4.2464: real time    4.2766
    SETDIJ:  cpu time    0.0544: real time    0.0545
    TRIAL :  cpu time    1.1536: real time    1.1642
    CORREC:  cpu time    4.6787: real time    4.7159
    CHARGE:  cpu time    0.1774: real time    0.1795
    --------------------------------------------
      LOOP:  cpu time   10.3402: real time   10.4214

 eigenvalue-minimisations  :     0
 total energy-change (2. order) :-0.5451227E-03  (-0.2258149E-03)
 number of electron     216.0000000 magnetization 
 augmentation part       -0.4128739 magnetization 

 Free energy of the ion-electron system (eV)
  ---------------------------------------------------
  alpha Z        PSCENC =        47.94900195
  Ewald energy   TEWEN  =     48114.18302124
  -Hartree energ DENC   =    -55078.74511672
  -exchange      EXHF   =         0.00000000
  -V(xc)+E(xc)   XCENC  =       444.18734733
  PAW double counting   =    107094.96065166  -106801.47907367
  entropy T*S    EENTRO =        -0.00000000
  eigenvalues    EBANDS =     -2653.60904453
  atomic energy  EATOM  =      8415.03548706
  ---------------------------------------------------
  free energy    TOTEN  =      -417.51772568 eV

  energy without entropy =     -417.51772568  energy(sigma->0) =     -417.51772568


--------------------------------------------------------------------------------------------------------




--------------------------------------- Iteration      1(  18)  ---------------------------------------


    POTLOK:  cpu time    4.2120: real time    4.2472
    SETDIJ:  cpu time    0.0543: real time    0.0545
    TRIAL :  cpu time    1.1536: real time    1.1665
    CORREC:  cpu time    4.6780: real time    4.7199
    CHARGE:  cpu time    0.1780: real time    0.1799
    --------------------------------------------
      LOOP:  cpu time   10.3336: real time   10.4360

 eigenvalue-minimisations  :     0
 total energy-change (2. order) :-0.2257144E-03  (-0.9095700E-04)
 number of electron     216.0000000 magnetization 
 augmentation part       -0.4130631 magnetization 

 Free energy of the ion-electron system (eV)
  ---------------------------------------------------
  alpha Z        PSCENC =        47.94900195
  Ewald energy   TEWEN  =     48114.18302124
  -Hartree energ DENC   =    -55078.67094495
  -exchange      EXHF   =         0.00000000
  -V(xc)+E(xc)   XCENC  =       444.18624659
  PAW double counting   =    107093.97644940  -106800.49366166
  entropy T*S    EENTRO =        -0.00000000
  eigenvalues    EBANDS =     -2653.68355102
  atomic energy  EATOM  =      8415.03548706
  ---------------------------------------------------
  free energy    TOTEN  =      -417.51795139 eV

  energy without entropy =     -417.51795139  energy(sigma->0) =     -417.51795139


--------------------------------------------------------------------------------------------------------




--------------------------------------- Iteration      1(  19)  ---------------------------------------


    POTLOK:  cpu time    4.2213: real time    4.2575
    SETDIJ:  cpu time    0.0543: real time    0.0546
    TRIAL :  cpu time    1.1628: real time    1.1758
    CORREC:  cpu time    4.6806: real time    4.7232
    CHARGE:  cpu time    0.1782: real time    0.1803
    --------------------------------------------
      LOOP:  cpu time   10.3489: real time   10.4445

 eigenvalue-minimisations  :     0
 total energy-change (2. order) :-0.9034516E-04  (-0.4183082E-04)
 number of electron     216.0000000 magnetization 
 augmentation part       -0.4131908 magnetization 

 Free energy of the ion-electron system (eV)
  ---------------------------------------------------
  alpha Z        PSCENC =        47.94900195
  Ewald energy   TEWEN  =     48114.18302124
  -Hartree energ DENC   =    -55078.70289125
  -exchange      EXHF   =         0.00000000
  -V(xc)+E(xc)   XCENC  =       444.18808284
  PAW double counting   =    107116.65861436  -106823.17560340
  entropy T*S    EENTRO =        -0.00000000
  eigenvalues    EBANDS =     -2653.65375454
  atomic energy  EATOM  =      8415.03548706
  ---------------------------------------------------
  free energy    TOTEN  =      -417.51804174 eV

  energy without entropy =     -417.51804174  energy(sigma->0) =     -417.51804174


--------------------------------------------------------------------------------------------------------




--------------------------------------- Iteration      1(  20)  ---------------------------------------


    POTLOK:  cpu time    4.2076: real time    4.2533
    SETDIJ:  cpu time    0.0543: real time    0.0545
    TRIAL :  cpu time    1.1556: real time    1.1664
    CORREC:  cpu time    4.6713: real time    4.7090
    CHARGE:  cpu time    0.1793: real time    0.1811
    --------------------------------------------
      LOOP:  cpu time   10.3045: real time   10.4015

 eigenvalue-minimisations  :     0
 total energy-change (2. order) :-0.4139205E-04  (-0.2124487E-04)
 number of electron     216.0000000 magnetization 
 augmentation part       -0.4131957 magnetization 

 Free energy of the ion-electron system (eV)
  ---------------------------------------------------
  alpha Z        PSCENC =        47.94900195
  Ewald energy   TEWEN  =     48114.18302124
  -Hartree energ DENC   =    -55078.63393452
  -exchange      EXHF   =         0.00000000
  -V(xc)+E(xc)   XCENC  =       444.18600614
  PAW double counting   =    107134.53521996  -106841.05196808
  entropy T*S    EENTRO =        -0.00000000
  eigenvalues    EBANDS =     -2653.72091689
  atomic energy  EATOM  =      8415.03548706
  ---------------------------------------------------
  free energy    TOTEN  =      -417.51808313 eV

  energy without entropy =     -417.51808313  energy(sigma->0) =     -417.51808313


--------------------------------------------------------------------------------------------------------




--------------------------------------- Iteration      1(  21)  ---------------------------------------


    POTLOK:  cpu time    4.2200: real time    4.2513
    SETDIJ:  cpu time    0.0543: real time    0.0545
    TRIAL :  cpu time    1.1562: real time    1.1671
    CORREC:  cpu time    4.6904: real time    4.7278
    CHARGE:  cpu time    0.1774: real time    0.1791
    --------------------------------------------
      LOOP:  cpu time   10.3288: real time   10.4366

 eigenvalue-minimisations  :     0
 total energy-change (2. order) :-0.2107992E-04  (-0.1044276E-04)
 number of electron     216.0000000 magnetization 
 augmentation part       -0.4131768 magnetization 

 Free energy of the ion-electron system (eV)
  ---------------------------------------------------
  alpha Z        PSCENC =        47.94900195
  Ewald energy   TEWEN  =     48114.18302124
  -Hartree energ DENC   =    -55078.61663083
  -exchange      EXHF   =         0.00000000
  -V(xc)+E(xc)   XCENC  =       444.18600586
  PAW double counting   =    107141.44373143  -106847.96087010
  entropy T*S    EENTRO =        -0.00000000
  eigenvalues    EBANDS =     -2653.73785083
  atomic energy  EATOM  =      8415.03548706
  ---------------------------------------------------
  free energy    TOTEN  =      -417.51810421 eV

  energy without entropy =     -417.51810421  energy(sigma->0) =     -417.51810421


--------------------------------------------------------------------------------------------------------




--------------------------------------- Iteration      1(  22)  ---------------------------------------


    POTLOK:  cpu time    4.2085: real time    4.2392
    SETDIJ:  cpu time    0.0544: real time    0.0546
    TRIAL :  cpu time    1.1556: real time    1.1664
    CORREC:  cpu time    4.6882: real time    4.7261
    CHARGE:  cpu time    0.1768: real time    0.1786
    --------------------------------------------
      LOOP:  cpu time   10.3536: real time   10.4368

 eigenvalue-minimisations  :     0
 total energy-change (2. order) :-0.1044667E-04  (-0.4410894E-05)
 number of electron     216.0000000 magnetization 
 augmentation part       -0.4131466 magnetization 

 Free energy of the ion-electron system (eV)
  ---------------------------------------------------
  alpha Z        PSCENC =        47.94900195
  Ewald energy   TEWEN  =     48114.18302124
  -Hartree energ DENC   =    -55078.56950948
  -exchange      EXHF   =         0.00000000
  -V(xc)+E(xc)   XCENC  =       444.18485718
  PAW double counting   =    107140.78242975  -106847.29967235
  entropy T*S    EENTRO =        -0.00000000
  eigenvalues    EBANDS =     -2653.78373001
  atomic energy  EATOM  =      8415.03548706
  ---------------------------------------------------
  free energy    TOTEN  =      -417.51811465 eV

  energy without entropy =     -417.51811465  energy(sigma->0) =     -417.51811465


--------------------------------------------------------------------------------------------------------




--------------------------------------- Iteration      1(  23)  ---------------------------------------


    POTLOK:  cpu time    4.2128: real time    4.2439
    SETDIJ:  cpu time    0.0544: real time    0.0546
    TRIAL :  cpu time    1.1572: real time    1.1680
    CORREC:  cpu time    4.6951: real time    4.7349
    CHARGE:  cpu time    0.1770: real time    0.1793
    --------------------------------------------
      LOOP:  cpu time   10.3456: real time   10.4321

 eigenvalue-minimisations  :     0
 total energy-change (2. order) :-0.4453701E-05  (-0.1712739E-05)
 number of electron     216.0000000 magnetization 
 augmentation part       -0.4131283 magnetization 

 Free energy of the ion-electron system (eV)
  ---------------------------------------------------
  alpha Z        PSCENC =        47.94900195
  Ewald energy   TEWEN  =     48114.18302124
  -Hartree energ DENC   =    -55078.55865582
  -exchange      EXHF   =         0.00000000
  -V(xc)+E(xc)   XCENC  =       444.18487193
  PAW double counting   =    107138.67558771  -106845.19292829
  entropy T*S    EENTRO =        -0.00000000
  eigenvalues    EBANDS =     -2653.79450490
  atomic energy  EATOM  =      8415.03548706
  ---------------------------------------------------
  free energy    TOTEN  =      -417.51811911 eV

  energy without entropy =     -417.51811911  energy(sigma->0) =     -417.51811911


--------------------------------------------------------------------------------------------------------




--------------------------------------- Iteration      1(  24)  ---------------------------------------


    POTLOK:  cpu time    4.2338: real time    4.2722
    SETDIJ:  cpu time    0.0544: real time    0.0545
    TRIAL :  cpu time    1.1556: real time    1.1663
    CORREC:  cpu time    4.7108: real time    4.7459
    CHARGE:  cpu time    0.1785: real time    0.1802
    --------------------------------------------
      LOOP:  cpu time   10.3552: real time   10.4525

 eigenvalue-minimisations  :     0
 total energy-change (2. order) :-0.1746157E-05  (-0.7983284E-06)
 number of electron     216.0000000 magnetization 
 augmentation part       -0.4131242 magnetization 

 Free energy of the ion-electron system (eV)
  ---------------------------------------------------
  alpha Z        PSCENC =        47.94900195
  Ewald energy   TEWEN  =     48114.18302124
  -Hartree energ DENC   =    -55078.56113652
  -exchange      EXHF   =         0.00000000
  -V(xc)+E(xc)   XCENC  =       444.18515731
  PAW double counting   =    107137.85950995  -106844.37688298
  entropy T*S    EENTRO =        -0.00000000
  eigenvalues    EBANDS =     -2653.79227887
  atomic energy  EATOM  =      8415.03548706
  ---------------------------------------------------
  free energy    TOTEN  =      -417.51812085 eV

  energy without entropy =     -417.51812085  energy(sigma->0) =     -417.51812085


--------------------------------------------------------------------------------------------------------




--------------------------------------- Iteration      1(  25)  ---------------------------------------


    POTLOK:  cpu time    4.2174: real time    4.2474
    SETDIJ:  cpu time    0.0544: real time    0.0546
    TRIAL :  cpu time    1.1560: real time    1.1666
    CORREC:  cpu time    4.6911: real time    4.7289
    CHARGE:  cpu time    0.1787: real time    0.1804
    --------------------------------------------
      LOOP:  cpu time   10.3598: real time   10.4427

 eigenvalue-minimisations  :     0
 total energy-change (2. order) :-0.8210336E-06  (-0.3918029E-06)
 number of electron     216.0000000 magnetization 
 augmentation part       -0.4131181 magnetization 

 Free energy of the ion-electron system (eV)
  ---------------------------------------------------
  alpha Z        PSCENC =        47.94900195
  Ewald energy   TEWEN  =     48114.18302124
  -Hartree energ DENC   =    -55078.55870128
  -exchange      EXHF   =         0.00000000
  -V(xc)+E(xc)   XCENC  =       444.18503430
  PAW double counting   =    107137.78569725  -106844.30301108
  entropy T*S    EENTRO =        -0.00000000
  eigenvalues    EBANDS =     -2653.79465112
  atomic energy  EATOM  =      8415.03548706
  ---------------------------------------------------
  free energy    TOTEN  =      -417.51812168 eV

  energy without entropy =     -417.51812168  energy(sigma->0) =     -417.51812168


--------------------------------------------------------------------------------------------------------




--------------------------------------- Iteration      1(  26)  ---------------------------------------


    POTLOK:  cpu time    4.2052: real time    4.2354
    SETDIJ:  cpu time    0.0543: real time    0.0545
    TRIAL :  cpu time    1.1546: real time    1.1656
    CORREC:  cpu time    4.6769: real time    4.7139
    CHARGE:  cpu time    0.1783: real time    0.1800
    --------------------------------------------
      LOOP:  cpu time   10.2994: real time   10.3843

 eigenvalue-minimisations  :     0
 total energy-change (2. order) :-0.4018511E-06  (-0.1765118E-06)
 number of electron     216.0000000 magnetization 
 augmentation part       -0.4131173 magnetization 

 Free energy of the ion-electron system (eV)
  ---------------------------------------------------
  alpha Z        PSCENC =        47.94900195
  Ewald energy   TEWEN  =     48114.18302124
  -Hartree energ DENC   =    -55078.56721583
  -exchange      EXHF   =         0.00000000
  -V(xc)+E(xc)   XCENC  =       444.18526163
  PAW double counting   =    107137.91212451  -106844.42945786
  entropy T*S    EENTRO =        -0.00000000
  eigenvalues    EBANDS =     -2653.78634478
  atomic energy  EATOM  =      8415.03548706
  ---------------------------------------------------
  free energy    TOTEN  =      -417.51812208 eV

  energy without entropy =     -417.51812208  energy(sigma->0) =     -417.51812208


--------------------------------------------------------------------------------------------------------




--------------------------------------- Iteration      1(  27)  ---------------------------------------


    POTLOK:  cpu time    4.2699: real time    4.3022
    SETDIJ:  cpu time    0.0543: real time    0.0545
    TRIAL :  cpu time    1.1555: real time    1.1663
    CORREC:  cpu time    4.6996: real time    4.7383
    CHARGE:  cpu time    0.1781: real time    0.1798
    --------------------------------------------
      LOOP:  cpu time   10.3932: real time   10.4818

 eigenvalue-minimisations  :     0
 total energy-change (2. order) :-0.1787848E-06  (-0.8751986E-07)
 number of electron     216.0000000 magnetization 
 augmentation part       -0.4131162 magnetization 

 Free energy of the ion-electron system (eV)
  ---------------------------------------------------
  alpha Z        PSCENC =        47.94900195
  Ewald energy   TEWEN  =     48114.18302124
  -Hartree energ DENC   =    -55078.56871376
  -exchange      EXHF   =         0.00000000
  -V(xc)+E(xc)   XCENC  =       444.18524011
  PAW double counting   =    107138.09706664  -106844.61439210
  entropy T*S    EENTRO =        -0.00000000
  eigenvalues    EBANDS =     -2653.78483340
  atomic energy  EATOM  =      8415.03548706
  ---------------------------------------------------
  free energy    TOTEN  =      -417.51812226 eV

  energy without entropy =     -417.51812226  energy(sigma->0) =     -417.51812226


--------------------------------------------------------------------------------------------------------




--------------------------------------- Iteration      1(  28)  ---------------------------------------


    POTLOK:  cpu time    4.2008: real time    4.2339
    SETDIJ:  cpu time    0.0543: real time    0.0545
    TRIAL :  cpu time    1.1514: real time    1.1638
    CORREC:  cpu time    4.6872: real time    4.7387
    EDDIAG:  cpu time    0.4346: real time    0.4398
    CHARGE:  cpu time    0.1779: real time    0.1797
[...]
      21 -86.0158      22 -86.0216      23 -86.0450      24 -86.0409      25 -86.0276
      26 -86.0299      27 -86.0237      28 -86.0408      29 -86.0235      30 -86.0274
      31 -86.0510      32 -86.0399      33 -86.0369      34 -86.0298      35 -86.0269
      36 -86.0308      37 -86.0326      38 -86.0359      39 -86.0359      40 -86.0329
      41 -86.0342      42 -86.0381      43 -86.0309      44 -86.0379      45 -86.0264
      46 -86.0245      47 -86.0338      48 -86.0302      49 -86.0347      50 -86.0330
      51 -89.8742      52-120.3825      53-120.3906
 
 
 
 E-fermi :  -4.3498     XC(G=0):  -2.1808     alpha+bet : -1.6890

 Fermi energy:        -4.3497746387

 k-point     1 :       0.0000    0.0000    0.0000
  band No.  band energies     occupation 
      1     -27.6189      2.00000
      2     -26.6193      2.00000
      3     -22.4483      2.00000
      4     -21.5260      2.00000
      5     -21.5150      2.00000
      6     -21.5081      2.00000
      7     -21.5072      2.00000
      8     -21.5044      2.00000
      9     -21.5004      2.00000
     10     -19.6817      2.00000
     11     -19.6771      2.00000
     12     -19.6697      2.00000
     13     -19.6688      2.00000
     14     -19.6666      2.00000
     15     -19.6662      2.00000
     16     -18.7835      2.00000
     17     -18.7797      2.00000
     18     -18.7762      2.00000
     19     -18.7745      2.00000
     20     -18.7727      2.00000
     21     -18.7720      2.00000
     22     -16.6222      2.00000
     23     -16.6200      2.00000
     24     -16.6155      2.00000
     25     -16.6143      2.00000
     26     -16.6101      2.00000
     27     -16.6093      2.00000
     28     -15.6425      2.00000
     29     -15.6405      2.00000
     30     -15.6356      2.00000
     31     -15.6353      2.00000
     32     -15.6330      2.00000
     33     -15.6324      2.00000
     34     -14.2913      2.00000
     35     -14.2898      2.00000
     36     -14.2883      2.00000
     37     -14.2864      2.00000
     38     -14.2858      2.00000
     39     -14.2854      2.00000
     40     -12.4980      2.00000
     41     -11.9161      2.00000
     42     -11.9146      2.00000
     43     -11.9099      2.00000
     44     -11.9092      2.00000
     45     -11.9091      2.00000
     46     -11.9077      2.00000
     47     -11.8240      2.00000
     48     -11.8211      2.00000
     49     -11.8192      2.00000
     50     -11.8189      2.00000
     51     -11.8146      2.00000
     52     -11.8143      2.00000
     53     -11.4572      2.00000
     54     -11.3451      2.00000
     55     -11.2740      2.00000
     56     -10.5402      2.00000
     57     -10.4491      2.00000
     58     -10.4489      2.00000
     59     -10.4471      2.00000
     60     -10.4470      2.00000
     61     -10.4459      2.00000
     62     -10.4447      2.00000
     63      -9.4871      2.00000
     64      -9.4863      2.00000
     65      -9.4844      2.00000
     66      -9.4813      2.00000
     67      -9.4783      2.00000
     68      -9.3721      2.00000
     69      -9.1880      2.00000
     70      -9.1841      2.00000
     71      -9.1831      2.00000
     72      -9.1824      2.00000
     73      -9.1813      2.00000
     74      -9.1794      2.00000
     75      -9.1270      2.00000
     76      -9.1258      2.00000
     77      -9.1251      2.00000
     78      -9.1226      2.00000
     79      -9.1223      2.00000
     80      -9.1202      2.00000
     81      -7.8752      2.00000
     82      -7.7531      2.00000
     83      -7.5368      2.00000
     84      -7.5354      2.00000
     85      -7.5342      2.00000
     86      -7.5309      2.00000
     87      -7.5296      2.00000
     88      -7.5292      2.00000
     89      -7.3645      2.00000
     90      -7.3539      2.00000
     91      -7.3502      2.00000
     92      -7.3398      2.00000
     93      -7.3318      2.00000
     94      -7.2094      2.00000
     95      -6.4673      2.00000
     96      -6.4643      2.00000
     97      -6.4550      2.00000
     98      -6.4540      2.00000
     99      -6.4439      2.00000
    100      -6.3900      2.00000
    101      -6.0551      2.00000
    102      -6.0526      2.00000
    103      -4.4890      2.00000
    104      -4.4822      2.00000
    105      -4.4757      2.00000
    106      -4.4712      2.00000
    107      -4.4684      2.00000
    108      -4.4671      2.00000
    109      -1.7004      0.00000
    110      -1.6929      0.00000
    111      -1.6761      0.00000
    112      -1.6727      0.00000
    113      -1.6702      0.00000
    114      -1.6640      0.00000
    115      -0.2157      0.00000
    116       0.1430      0.00000
    117       0.1635      0.00000
    118       0.1782      0.00000
    119       0.1868      0.00000
    120       0.1903      0.00000
    121       0.1947      0.00000
    122       0.4481      0.00000
    123       0.9393      0.00000
    124       1.0667      0.00000
    125       1.1323      0.00000
    126       1.1463      0.00000
    127       1.1496      0.00000
    128       1.2210      0.00000
    129       1.2426      0.00000
    130       1.5744      0.00000
    131       1.6499      0.00000
    132       1.8059      0.00000
    133       1.8278      0.00000
    134       1.8999      0.00000
    135       1.9153      0.00000
    136       1.9503      0.00000


--------------------------------------------------------------------------------------------------------


 soft charge-density along one line, spin component           1
         0         1         2         3         4         5         6         7         8         9
 total charge-density along one line
 
 pseudopotential strength for first ion, spin component:           1
 12.722  21.408  -0.000   0.000   0.000  -0.000   0.000   0.000
 21.408  36.025  -0.000   0.000   0.000  -0.000   0.000   0.000
 -0.000  -0.000  -3.197  -0.000   0.000  -5.729  -0.000   0.000
  0.000   0.000  -0.000  -3.199  -0.000  -0.000  -5.733  -0.000
  0.000   0.000   0.000  -0.000  -3.197   0.000  -0.000  -5.729
 -0.000  -0.000  -5.729  -0.000   0.000 -10.247  -0.000   0.000
  0.000   0.000  -0.000  -5.733  -0.000  -0.000 -10.253  -0.000
  0.000   0.000   0.000  -0.000  -5.729   0.000  -0.000 -10.247
 total augmentation occupancy for first ion, spin component:           1
  7.651  -2.660  -0.001  -0.002   0.000   0.000   0.001  -0.000
 -2.660   0.962   0.000   0.001  -0.000  -0.000  -0.000   0.000
 -0.001   0.000   7.068  -0.008   0.000  -2.369   0.003  -0.000
 -0.002   0.001  -0.008   3.113  -0.000   0.003  -0.813   0.000
  0.000  -0.000   0.000  -0.000   7.067  -0.000   0.000  -2.369
  0.000  -0.000  -2.369   0.003  -0.000   0.809  -0.001   0.000
  0.001  -0.000   0.003  -0.813   0.000  -0.001   0.219   0.000
 -0.000   0.000  -0.000   0.000  -2.369   0.000   0.000   0.809


------------------------ aborting loop because EDIFF is reached ----------------------------------------


    FORLOC:  cpu time    0.0681: real time    0.0687
    FORNL :  cpu time    0.8418: real time    0.8463
    FORCOR:  cpu time    4.2957: real time    4.3264
    OFIELD:  cpu time    0.0015: real time    0.0015

 VOLUME and BASIS-vectors are now :
 -----------------------------------------------------------------------------
  energy-cutoff  :     1000.00
  volume of cell :     3288.85
      direct lattice vectors                 reciprocal lattice vectors
    12.325000000  0.000000000  0.000000000     0.081135903  0.046843835  0.000000000
    -6.162500000 10.673763102  0.000000000     0.000000000  0.093687670  0.000000000
     0.000000000  0.000000000 25.000000000     0.000000000  0.000000000  0.040000000

  length of vectors
    12.325000000 12.325000000 25.000000000     0.093687670  0.093687670  0.040000000


 FORCES acting on ions:
    Electron-Ion                     Ewald-Force                    Non-Local-Force
 -----------------------------------------------------------------------------------------------
   0.130E+02 0.114E+02 0.248E+02   -.130E+02 -.114E+02 -.248E+02   0.143E-01 -.894E-02 0.174E-01
   0.221E+02 0.110E+02 0.335E+02   -.221E+02 -.110E+02 -.335E+02   0.217E-01 -.167E-01 -.209E-02
   0.114E+02 0.286E+02 0.429E+02   -.114E+02 -.287E+02 -.429E+02   -.930E-03 0.586E-01 0.535E-01
   0.192E+02 0.283E+02 0.743E+02   -.193E+02 -.283E+02 -.744E+02   0.844E-01 0.364E-01 0.101E+00
   0.142E+02 0.339E+01 0.249E+02   -.142E+02 -.337E+01 -.249E+02   0.149E-02 -.202E-01 -.192E-02
   0.150E+02 -.249E+01 0.255E+02   -.150E+02 0.250E+01 -.255E+02   -.290E-01 -.693E-02 -.960E-02
   0.319E+02 0.135E+02 0.622E+02   -.320E+02 -.134E+02 -.622E+02   0.611E-01 -.927E-01 -.472E-01
   0.320E+02 -.106E+02 0.675E+02   -.320E+02 0.106E+02 -.674E+02   -.210E-01 -.346E-01 -.226E+00
   -.124E+02 0.269E+02 0.448E+02   0.124E+02 -.268E+02 -.447E+02   -.246E-01 -.130E-01 -.562E-01
   -.241E+02 0.208E+02 0.732E+02   0.242E+02 -.208E+02 -.731E+02   -.742E-01 0.349E-01 -.234E+00
   0.344E+01 -.298E+01 0.196E+02   -.342E+01 0.296E+01 -.196E+02   -.831E-02 0.672E-02 -.549E-02
   0.270E+01 -.217E+01 0.182E+02   -.270E+01 0.218E+01 -.182E+02   -.173E-01 0.744E-02 0.158E-02
   0.119E+02 -.301E+02 0.788E+02   -.121E+02 0.302E+02 -.787E+02   0.119E+00 0.296E-02 -.256E+00
   0.518E+01 -.292E+02 0.439E+02   -.522E+01 0.291E+02 -.438E+02   0.323E-01 0.233E-02 -.470E-01
   -.128E+02 0.805E+01 0.244E+02   0.127E+02 -.804E+01 -.244E+02   0.197E-01 -.111E-01 -.357E-02
   -.194E+02 0.538E+01 0.293E+02   0.193E+02 -.538E+01 -.292E+02   0.391E-02 0.731E-02 -.223E-01
   -.183E+01 -.755E+00 0.174E+02   0.184E+01 0.752E+00 -.174E+02   -.383E-02 -.218E-02 0.154E-02
   0.104E+01 0.681E+01 0.187E+02   -.104E+01 -.681E+01 -.187E+02   -.996E-02 0.418E-02 0.867E-02
   -.405E+01 -.230E+02 0.317E+02   0.402E+01 0.230E+02 -.318E+02   0.373E-01 -.275E-02 0.220E-01
   -.163E+01 -.106E+02 0.208E+02   0.163E+01 0.106E+02 -.208E+02   0.423E-02 -.476E-02 -.693E-03
   0.234E+02 -.101E+02 0.369E+02   -.233E+02 0.101E+02 -.369E+02   -.138E-01 -.263E-02 -.509E-01
   0.134E+02 -.116E+02 0.277E+02   -.133E+02 0.116E+02 -.277E+02   -.175E-01 0.248E-01 -.102E-01
   -.589E+01 0.143E+02 0.101E+03   0.602E+01 -.144E+02 -.101E+03   -.130E+00 0.907E-01 -.562E-01
   -.116E+02 -.228E+02 0.934E+02   0.116E+02 0.229E+02 -.935E+02   0.885E-01 -.103E+00 -.154E-01
   0.596E+01 -.268E+01 0.198E+02   -.593E+01 0.267E+01 -.198E+02   -.157E-01 0.342E-02 -.924E-02
   0.106E+01 0.536E+01 0.200E+02   -.105E+01 -.536E+01 -.200E+02   -.142E-01 0.617E-02 -.116E-02
   -.313E+02 0.335E+01 0.506E+02   0.313E+02 -.341E+01 -.505E+02   0.513E-02 0.376E-01 -.744E-01
   -.279E+02 -.122E+02 0.442E+02   0.280E+02 0.122E+02 -.442E+02   -.469E-01 0.440E-01 0.259E-01
   0.816E+01 -.168E+02 0.292E+02   -.816E+01 0.168E+02 -.291E+02   0.782E-02 0.156E-01 -.155E-01
   0.759E+00 -.598E+01 0.212E+02   -.775E+00 0.597E+01 -.212E+02   0.489E-02 0.136E-01 -.877E-02
   -.234E+02 -.254E+02 0.565E+02   0.234E+02 0.255E+02 -.566E+02   -.641E-01 -.427E-01 0.918E-01
   -.125E+02 -.227E+02 0.343E+02   0.125E+02 0.227E+02 -.344E+02   -.186E-02 -.349E-01 0.335E-01
   0.675E+00 0.281E+01 0.180E+02   -.679E+00 -.281E+01 -.180E+02   0.121E-01 -.997E-02 0.354E-02
   0.197E+01 0.287E+01 0.196E+02   -.197E+01 -.285E+01 -.195E+02   0.953E-03 -.815E-02 -.598E-02
   -.884E+01 0.104E+01 0.217E+02   0.883E+01 -.105E+01 -.217E+02   0.140E-01 0.282E-02 -.163E-02
   -.753E+01 -.298E+01 0.210E+02   0.754E+01 0.298E+01 -.210E+02   -.117E-01 0.101E-01 -.293E-02
   -.156E+02 -.815E+01 0.256E+02   0.156E+02 0.814E+01 -.256E+02   -.175E-01 0.458E-02 0.286E-02
   -.875E+01 -.713E+01 0.206E+02   0.876E+01 0.712E+01 -.207E+02   -.116E-01 0.390E-02 0.112E-01
   -.828E+01 -.109E+02 0.224E+02   0.829E+01 0.109E+02 -.224E+02   -.120E-01 -.104E-01 0.805E-02
   -.121E+01 -.253E+01 0.186E+02   0.120E+01 0.254E+01 -.186E+02   0.750E-03 -.196E-02 0.795E-02
   0.310E+01 0.737E+01 0.196E+02   -.310E+01 -.738E+01 -.196E+02   -.327E-02 0.115E-01 0.792E-02
   0.106E+02 0.165E+02 0.267E+02   -.106E+02 -.165E+02 -.267E+02   0.139E-01 0.167E-01 0.183E-01
   0.831E+00 0.133E+02 0.222E+02   -.821E+00 -.134E+02 -.222E+02   -.856E-02 0.965E-02 -.185E-04
   0.301E+00 0.264E+02 0.359E+02   -.264E+00 -.264E+02 -.359E+02   -.460E-01 0.118E-01 0.231E-01
   -.254E+01 0.508E+01 0.212E+02   0.254E+01 -.507E+01 -.212E+02   0.117E-02 -.997E-02 -.621E-02
   -.110E+02 0.141E+02 0.277E+02   0.110E+02 -.141E+02 -.277E+02   -.434E-02 -.463E-02 -.160E-01
   -.176E+01 -.500E+01 0.194E+02   0.175E+01 0.500E+01 -.194E+02   0.161E-01 0.152E-04 0.957E-03
   -.468E+01 0.193E+01 0.185E+02   0.466E+01 -.192E+01 -.185E+02   0.120E-01 -.174E-02 -.801E-02
   0.346E+00 -.310E+01 0.182E+02   -.344E+00 0.309E+01 -.182E+02   0.813E-02 -.294E-02 0.527E-02
   0.490E+01 0.361E+01 0.185E+02   -.490E+01 -.361E+01 -.185E+02   0.375E-02 0.544E-02 0.385E-02
   0.298E+00 -.175E+00 -.425E+03   -.279E+00 0.160E+00 0.426E+03   -.262E-01 0.122E-01 -.652E-01
   -.229E+03 0.155E+03 -.652E+03   0.279E+03 -.190E+03 0.655E+03   -.508E+02 0.346E+02 -.274E+01
   0.229E+03 -.156E+03 -.629E+03   -.279E+03 0.190E+03 0.626E+03   0.508E+02 -.347E+02 0.370E+01
 -----------------------------------------------------------------------------------------------
   0.588E-01 0.383E-02 -.150E+00   0.568E-13 -.142E-12 0.568E-12   -.588E-01 -.387E-02 0.145E+00
 
 
 POSITION                                       TOTAL-FORCE (eV/Angst)
 -----------------------------------------------------------------------------------
     11.98348      0.00342      0.01417         0.000611     -0.001881      0.001125
     -0.34154      1.42665      0.01100         0.010005      0.007713      0.003319
      2.12355      0.00315      0.01249         0.005624     -0.013110      0.011730
      2.12326      1.42653      0.00641        -0.006911      0.009081     -0.024680
     10.75099      2.13819      0.01213        -0.000580     -0.003675      0.004238
     -1.57382      3.56123      0.01110        -0.005934      0.008109      0.003355
      0.89078      2.13854      0.00548        -0.014779      0.011115     -0.027717
      0.89099      3.56147      0.00181        -0.013989      0.019648     -0.082300
      4.58864      0.00346      0.01135         0.010268      0.033252     -0.005803
      4.58894      1.42623      0.00646         0.020564     -0.017655     -0.108591
      9.51854      4.27281      0.01369         0.008380     -0.012358      0.000584
     -2.80632      5.69591      0.01434        -0.013254      0.007734      0.001035
      2.12300      4.27302      0.00000        -0.018686      0.039688     -0.136650
      2.12335      5.69594      0.00581        -0.006310     -0.041575     -0.004019
      7.05344      0.00333      0.01399         0.004064     -0.001264      0.004494
      7.05353      1.42635      0.01368        -0.007585      0.006592      0.003010
      8.28610      6.40752      0.01601         0.005038     -0.005161     -0.000169
     -4.03885      7.83070      0.01636        -0.006412      0.006528      0.000235
      3.35586      6.40753      0.01007         0.008043      0.003084      0.006609
      3.35599      7.83072      0.01320        -0.002996     -0.003667      0.000900
     -0.34146      4.27290      0.00723         0.027597     -0.017409      0.000399
     -0.34138      5.69591      0.00946        -0.006943      0.004953      0.007144
      3.35624      2.13791      0.00222         0.005505     -0.011933     -0.196629
      3.35573      3.56155      0.00139         0.003999      0.022008     -0.134183
     -1.57395      6.40758      0.01311         0.014206     -0.002176     -0.000491
     -1.57385      7.83068      0.01438        -0.005027      0.003959      0.000516
      5.82093      2.13784      0.01033        -0.019011     -0.021749     -0.015569
      5.82114      3.56097      0.01156        -0.000745     -0.000614      0.008915
      0.89092      6.40755      0.00907         0.001835     -0.000212      0.006535
      0.89106      7.83068      0.01235        -0.011308     -0.002915      0.000761
      4.58871      4.27293      0.00850         0.000487     -0.012512      0.007949
      4.58852      5.69606      0.01149        -0.000771      0.014560      0.006185
      9.51845      0.00337      0.01490         0.008282     -0.007935      0.000385
      9.51855      1.42644      0.01438        -0.004406      0.013330     -0.000130
      8.28593      2.13803      0.01453         0.002570     -0.007968      0.002060
      8.28613      3.56115      0.01464        -0.004392      0.002070      0.000977
      7.05356      4.27269      0.01457         0.000177     -0.001983      0.002830
      7.05362      5.69588      0.01553        -0.003113      0.001702      0.000314
      5.82112      6.40755      0.01489        -0.000805     -0.001153      0.000234
      5.82102      7.83073      0.01579        -0.004108      0.004759     -0.000163
      7.05363      8.54227      0.01631         0.002018     -0.003366      0.001287
     -5.27149      9.96549      0.01495        -0.001101     -0.000689     -0.000105
     -2.80638      8.54234      0.01558         0.002034      0.001662      0.000777
     -2.80627      9.96553      0.01362        -0.008710     -0.000757      0.007882
     -0.34149      8.54239      0.01378         0.007055      0.000055      0.001227
     -0.34138      9.96550      0.01354        -0.008204      0.004116      0.005073
      2.12343      8.54232      0.01336         0.007771     -0.000114      0.000886
      2.12354      9.96544      0.01469        -0.008967      0.002614     -0.001797
      4.58846      8.54235      0.01505         0.010485     -0.007693      0.001291
      4.58853      9.96550      0.01517        -0.002425      0.006456      0.001057
      3.04930      2.68154      2.80616        -0.007115     -0.003446      0.107291
      4.02070      2.02068      2.87058        -0.479885      0.353809      0.203427
      2.07767      3.34267      2.74670         0.507851     -0.383627      0.322960
 -----------------------------------------------------------------------------------
    total drift:                               -0.000013     -0.000042     -0.005010


--------------------------------------------------------------------------------------------------------



  FREE ENERGIE OF THE ION-ELECTRON SYSTEM (eV)
  ---------------------------------------------------
  free  energy   TOTEN  =      -417.51812234 eV

  energy  without entropy=     -417.51812234  energy(sigma->0) =     -417.51812234
 


--------------------------------------------------------------------------------------------------------


    POTLOK:  cpu time    4.2880: real time    4.3197


--------------------------------------------------------------------------------------------------------


 writing wavefunctions
     LOOP+:  cpu time  294.2674: real time  297.3674
    4ORBIT:  cpu time    0.0000: real time    0.0000

 total amount of memory used by VASP MPI-rank0   100580. kBytes
=======================================================================

   base      :      30000. kBytes
   nonl-proj :       8229. kBytes
   fftplans  :      18352. kBytes
   grid      :      30208. kBytes
   one-center:          6. kBytes
   wavefun   :      13785. kBytes
 
  
  
 General timing and accounting informations for this job:
 ========================================================
  
                  Total CPU time used (sec):      337.006
                            User time (sec):      312.101
                          System time (sec):       24.905
                         Elapsed time (sec):      341.461
  
                   Maximum memory used (kb):      773456.
                   Average memory used (kb):          N/A
  
                          Minor page faults:       430554
                          Major page faults:           92
                 Voluntary context switches:         3906
