 vasp.6.2.1 16May21 (build Nov 06 2021 14:46:37) complex                        
  
 executed on             LinuxIFC date 2025.04.16  18:46:11
 running on  112 total cores
 distrk:  each k-point on  112 cores,    1 groups
 distr:  one band on NCORE=  28 cores,    4 groups


--------------------------------------------------------------------------------------------------------


 INCAR:
   ALGO = Conjugate
   NPAR = 4
   ISMEAR = 0
   SIGMA = 0.01
   PREC = Accurate
   EDIFF = 1E-7
   ENCUT = 1000
   ISIF = 0
   GGA = MK
   PARAM1 = 0.1234
   PARAM2 = 1.0000
   LUSE_VDW = .TRUE.
   AGGAC = 0.0000
   LASPH = .TRUE.
   SYMPREC = 1E-7

 POTCAR:    PAW_PBE C_h 06Feb2004                 
 POTCAR:    PAW_PBE O_h 06Feb2004                 
 -----------------------------------------------------------------------------
|                                                                             |
|           W    W    AA    RRRRR   N    N  II  N    N   GGGG   !!!           |
|           W    W   A  A   R    R  NN   N  II  NN   N  G    G  !!!           |
|           W    W  A    A  R    R  N N  N  II  N N  N  G       !!!           |
|           W WW W  AAAAAA  RRRRR   N  N N  II  N  N N  G  GGG   !            |
|           WW  WW  A    A  R   R   N   NN  II  N   NN  G    G                |
|           W    W  A    A  R    R  N    N  II  N    N   GGGG   !!!           |
|                                                                             |
|     For optimal performance we recommend to set                             |
|       NCORE = 2 up to number-of-cores-per-socket                            |
|     NCORE specifies how many cores store one orbital (NPAR=cpu/NCORE).      |
|     This setting can greatly improve the performance of VASP for DFT.       |
|     The default, NCORE=1 might be grossly inefficient on modern             |
|     multi-core architectures or massively parallel machines. Do your        |
|     own testing! More info at https://www.vasp.at/wiki/index.php/NCORE      |
|     Unfortunately you need to use the default for GW and RPA                |
|     calculations (for HF NCORE is supported but not extensively tested      |
|     yet).                                                                   |
|                                                                             |
 -----------------------------------------------------------------------------

 -----------------------------------------------------------------------------
|                                                                             |
|               ----> ADVICE to this user running VASP <----                  |
|                                                                             |
|     You have switched on vdW-DFT.                                           |
|     This routine was written and supplied by Jiri Klimes. We recommend      |
|     that you carefully read and cite the following publications:            |
|       J. Klimes, D.R. Bowler, A. Michelides                                 |
|          J. Phys.: Cond Matt. 22 022201 (2010)                              |
|       J. Klimes, D.R. Bowler, A. Michelides                                 |
|          Phys. Rev. B. 83, 195131 (2011)                                    |
|     and references therein.                                                 |
|                                                                             |
 -----------------------------------------------------------------------------

 POTCAR:    PAW_PBE C_h 06Feb2004                 
   VRHFIN =C: s2p2                                                                                  
   LEXCH  = PE                                                                                      
   EATOM  =   147.1560 eV,   10.8157 Ry                                                             
                                                                                                    
   TITEL  = PAW_PBE C_h 06Feb2004                                                                   
   LULTRA =        F    use ultrasoft PP ?                                                          
   IUNSCR =        1    unscreen: 0-lin 1-nonlin 2-no                                               
   RPACOR =    0.800    partial core radius                                                         
   POMASS =   12.011; ZVAL   =    4.000    mass and valenz                                          
   RCORE  =    1.100    outmost cutoff radius                                                       
   RWIGS  =    1.630; RWIGS  =    0.863    wigner-seitz radius (au A)                               
   ENMAX  =  700.000; ENMIN  =  500.000 eV                                                          
   ICORE  =        2    local potential                                                             
   LCOR   =        T    correct aug charges                                                         
   LPAW   =        T    paw PP                                                                      
   EAUG   =  946.768                                                                                
   DEXC   =    0.000                                                                                
   RMAX   =    1.128    core radius for proj-oper                                                   
   RAUG   =    1.300    factor for augmentation sphere                                              
   RDEP   =    1.162    radius for radial grids                                                     
   RDEPT  =    1.088    core radius for aug-charge                                                  
                                                                                                    
   Atomic configuration                                                                             
    4 entries                                                                                       
     n  l   j            E        occ.                                                              
     1  0  0.50      -273.3789   2.0000                                                             
     2  0  0.50       -13.7508   2.0000                                                             
     2  1  0.50        -5.2854   2.0000                                                             
     3  2  1.50        -5.4423   0.0000                                                             
   Description                                                                                      
     l       E           TYP  RCUT    TYP  RCUT                                                     
     0    -13.7508458     23  1.100                                                                 
     0     -8.2022199     23  1.100                                                                 
     1     -5.2854383     23  1.100                                                                 
     1      1.1560700     23  1.100                                                                 
     2     -5.4423304      7  1.100                                                                 
  local pseudopotential read in
  partial core-charges read in
  partial kinetic energy density read in
  atomic valenz-charges read in
  non local Contribution for L=           0  read in
    real space projection operators read in
  non local Contribution for L=           0  read in
    real space projection operators read in
  non local Contribution for L=           1  read in
    real space projection operators read in
  non local Contribution for L=           1  read in
    real space projection operators read in
    PAW grid and wavefunctions read in
 
   number of l-projection  operators is LMAX  =           4
   number of lm-projection operators is LMMAX =           8
 
 POTCAR:    PAW_PBE O_h 06Feb2004                 
   VRHFIN =O: s2p4                                                                                  
   LEXCH  = PE                                                                                      
   EATOM  =   432.3788 eV,   31.7789 Ry                                                             
                                                                                                    
   TITEL  = PAW_PBE O_h 06Feb2004                                                                   
   LULTRA =        F    use ultrasoft PP ?                                                          
   IUNSCR =        1    unscreen: 0-lin 1-nonlin 2-no                                               
   RPACOR =    0.800    partial core radius                                                         
   POMASS =   16.000; ZVAL   =    6.000    mass and valenz                                          
   RCORE  =    1.100    outmost cutoff radius                                                       
   RWIGS  =    1.400; RWIGS  =    0.741    wigner-seitz radius (au A)                               
   ENMAX  =  700.000; ENMIN  =  500.000 eV                                                          
   ICORE  =        2    local potential                                                             
   LCOR   =        T    correct aug charges                                                         
   LPAW   =        T    paw PP                                                                      
   EAUG   =  888.804                                                                                
   DEXC   =    0.000                                                                                
   RMAX   =    1.128    core radius for proj-oper                                                   
   RAUG   =    1.300    factor for augmentation sphere                                              
   RDEP   =    1.125    radius for radial grids                                                     
   RDEPT  =    1.088    core radius for aug-charge                                                  
                                                                                                    
   Atomic configuration                                                                             
    4 entries                                                                                       
     n  l   j            E        occ.                                                              
     1  0  0.50      -514.6923   2.0000                                                             
     2  0  0.50       -23.9615   2.0000                                                             
     2  1  0.50        -9.0305   4.0000                                                             
     3  2  1.50        -9.5241   0.0000                                                             
   Description                                                                                      
     l       E           TYP  RCUT    TYP  RCUT                                                     
     0    -23.9615319     23  1.100                                                                 
     0    -25.3221145     23  1.100                                                                 
     1     -9.0304911     23  1.100                                                                 
     1     -5.4802209     23  1.100                                                                 
     2     -9.5240782      7  1.100                                                                 
  local pseudopotential read in
  partial core-charges read in
  partial kinetic energy density read in
  atomic valenz-charges read in
  non local Contribution for L=           0  read in
    real space projection operators read in
  non local Contribution for L=           0  read in
    real space projection operators read in
  non local Contribution for L=           1  read in
    real space projection operators read in
  non local Contribution for L=           1  read in
    real space projection operators read in
    PAW grid and wavefunctions read in
 
   number of l-projection  operators is LMAX  =           4
   number of lm-projection operators is LMMAX =           8
 
 -----------------------------------------------------------------------------
|                                                                             |
|               ----> ADVICE to this user running VASP <----                  |
|                                                                             |
|     You have a (more or less) 'large supercell' and for larger cells it     |
|     might be more efficient to use real-space projection operators.         |
|     Therefore, try LREAL= Auto in the INCAR file.                           |
|     Mind: For very accurate calculation, you might also keep the            |
|     reciprocal projection scheme (i.e. LREAL=.FALSE.).                      |
|                                                                             |
 -----------------------------------------------------------------------------

 -----------------------------------------------------------------------------
|                                                                             |
|               ----> ADVICE to this user running VASP <----                  |
|                                                                             |
|     You enforced a specific xc type in the INCAR file but a different       |
|     type was found in the POTCAR file.                                      |
|     I HOPE YOU KNOW WHAT YOU ARE DOING!                                     |
|                                                                             |
 -----------------------------------------------------------------------------

  PAW_PBE C_h 06Feb2004                 :
 energy of atom  1       EATOM= -147.1560
 kinetic energy error for atom=    0.0031 (will be added to EATOM!!)
  PAW_PBE O_h 06Feb2004                 :
 energy of atom  2       EATOM= -432.3788
 kinetic energy error for atom=    0.0171 (will be added to EATOM!!)
 
 
 POSCAR:  C  O
  positions in cartesian coordinates
  No initial velocities read in
 exchange correlation table for  LEXCH =       43
   RHO(1)=    0.500       N(1)  =     2000
   RHO(2)=  100.500       N(2)  =     4000
 


--------------------------------------------------------------------------------------------------------


 ion  position               nearest neighbor table
   1  0.972  0.000  0.001-  50 1.42   2 1.42  42 1.42
   2  0.039  0.134  0.000-   5 1.42   7 1.42   1 1.42
   3  0.172  0.000  0.000-  42 1.42  44 1.42   4 1.42
   4  0.239  0.134  0.000-   7 1.42   3 1.42  23 1.42
   5  0.972  0.200  0.000-   6 1.42   2 1.42  34 1.42
   6  0.039  0.334  0.000-   5 1.42  21 1.42  11 1.42
   7  0.172  0.200  0.000-   8 1.42   2 1.42   4 1.42
   8  0.239  0.334  0.000-  13 1.42   7 1.42  21 1.42
   9  0.372  0.000  0.000-  10 1.42  44 1.42  46 1.42
  10  0.439  0.134  0.000-  27 1.42   9 1.42  23 1.42
  11  0.972  0.400  0.001-  12 1.42  36 1.42   6 1.42
  12  0.039  0.534  0.001-  25 1.42  11 1.42  17 1.42
  13  0.372  0.400  0.000-   8 1.42  14 1.42  24 1.42
  14  0.439  0.534  0.000-  13 1.42  29 1.42  19 1.42
  15  0.572  0.000  0.001-  46 1.42  16 1.42  48 1.42
  16  0.639  0.134  0.001-  15 1.42  35 1.42  27 1.42
  17  0.972  0.600  0.001-  38 1.42  18 1.42  12 1.42
  18  0.039  0.734  0.001-  43 1.42  41 1.42  17 1.42
  19  0.572  0.600  0.000-  14 1.42  20 1.42  32 1.42
  20  0.639  0.734  0.001-  49 1.42  19 1.42  47 1.42
  21  0.172  0.400  0.000-  22 1.42   8 1.42   6 1.42
  22  0.239  0.534  0.000-  21 1.42  29 1.42  25 1.42
  23  0.372  0.200  0.000-  10 1.42   4 1.42  24 1.42
  24  0.439  0.334  0.000-  13 1.42  31 1.42  23 1.42
  25  0.172  0.600  0.001-  26 1.42  12 1.42  22 1.42
  26  0.239  0.734  0.001-  25 1.42  45 1.42  43 1.42
  27  0.572  0.200  0.000-  10 1.42  28 1.42  16 1.42
  28  0.639  0.334  0.000-  27 1.42  37 1.42  31 1.42
  29  0.372  0.600  0.000-  22 1.42  14 1.42  30 1.42
  30  0.439  0.734  0.000-  47 1.42  29 1.42  45 1.42
  31  0.572  0.400  0.000-  32 1.42  28 1.42  24 1.42
  32  0.639  0.534  0.000-  31 1.42  39 1.42  19 1.42
  33  0.772  0.000  0.001-  34 1.42  48 1.42  50 1.42
  34  0.839  0.134  0.001-  33 1.42   5 1.42  35 1.42
  35  0.772  0.200  0.001-  36 1.42  16 1.42  34 1.42
  36  0.839  0.334  0.001-  35 1.42  11 1.42  37 1.42
  37  0.772  0.400  0.001-  28 1.42  38 1.42  36 1.42
  38  0.839  0.534  0.001-  17 1.42  37 1.42  39 1.42
  39  0.772  0.600  0.001-  40 1.42  38 1.42  32 1.42
  40  0.839  0.734  0.001-  39 1.42  49 1.42  41 1.42
  41  0.972  0.800  0.001-  18 1.42  42 1.42  40 1.42
  42  0.039  0.934  0.001-   3 1.42  41 1.42   1 1.42
  43  0.172  0.800  0.001-  18 1.42  44 1.42  26 1.42
  44  0.239  0.934  0.001-   9 1.42  43 1.42   3 1.42
  45  0.372  0.800  0.001-  26 1.42  46 1.42  30 1.42
  46  0.439  0.934  0.001-  15 1.42  45 1.42   9 1.42
  47  0.572  0.800  0.001-  30 1.42  48 1.42  20 1.42
  48  0.639  0.934  0.001-  47 1.42  33 1.42  15 1.42
  49  0.772  0.800  0.001-  50 1.42  20 1.42  40 1.42
  50  0.839  0.934  0.001-  49 1.42   1 1.42  33 1.42
  51  0.373  0.251  0.336-  52 1.18  53 1.18
  52  0.421  0.189  0.339-  51 1.18
  53  0.325  0.313  0.334-  51 1.18
 
  LATTYP: Found a hexagonal cell.
 ALAT       =    12.3250000000
 C/A-ratio  =     2.0283975659
  
  Lattice vectors:
  
 A1 = (  12.3250000000,   0.0000000000,   0.0000000000)
 A2 = (  -6.1625000000,  10.6737631016,   0.0000000000)
 A3 = (   0.0000000000,   0.0000000000,  25.0000000000)


Analysis of symmetry for initial positions (statically):
=====================================================================
 Subroutine PRICEL returns:
 Original cell was already a primitive cell.
 

 Routine SETGRP: Setting up the symmetry group for a 
 hexagonal supercell.


 Subroutine GETGRP returns: Found  1 space group operations
 (whereof  1 operations were pure point group operations)
 out of a pool of 24 trial point group operations.


The static configuration has the point symmetry C_1 .


Analysis of symmetry for dynamics (positions and initial velocities):
=====================================================================
 Subroutine PRICEL returns:
 Original cell was already a primitive cell.
 

 Routine SETGRP: Setting up the symmetry group for a 
 hexagonal supercell.


 Subroutine GETGRP returns: Found  1 space group operations
 (whereof  1 operations were pure point group operations)
 out of a pool of 24 trial point group operations.


The dynamic configuration has the point symmetry C_1 .


 Subroutine INISYM returns: Found  1 space group operations
 (whereof  1 operations are pure point group operations),
 and found     1 'primitive' translations


----------------------------------------------------------------------------------------

                                     Primitive cell                                     

  volume of cell :    3288.8533

  direct lattice vectors                    reciprocal lattice vectors
    12.325000000  0.000000000  0.000000000     0.081135903  0.046843835  0.000000000
    -6.162500000 10.673763102  0.000000000     0.000000000  0.093687670  0.000000000
     0.000000000  0.000000000 25.000000000     0.000000000  0.000000000  0.040000000

  length of vectors
    12.325000000 12.325000000 25.000000000     0.093687670  0.093687670  0.040000000

  position of ions in fractional coordinates (direct lattice)
     0.972450841  0.000320818  0.000566711
     0.039118382  0.133659505  0.000440173
     0.172443627  0.000295449  0.000499628
     0.239096278  0.133647917  0.000256468
     0.972452058  0.200322012  0.000485219
     0.039128360  0.333643771  0.000444150
     0.172451764  0.200354552  0.000219167
     0.239124359  0.333665720  0.000072260
     0.372465565  0.000324403  0.000453913
     0.439137473  0.133619939  0.000258338
     0.972449824  0.400309362  0.000547611
     0.039124981  0.533636789  0.000573410
     0.372416176  0.400329481  0.000000000
     0.439099602  0.533638981  0.000232414
     0.572443676  0.000312125  0.000559580
     0.639110207  0.133631751  0.000547275
     0.972452703  0.600305653  0.000640289
     0.039124495  0.733640359  0.000654513
     0.572433471  0.600306242  0.000402895
     0.639111888  0.733641879  0.000527905
     0.172454630  0.400318228  0.000289045
     0.239120185  0.533636548  0.000378509
     0.372459750  0.200295993  0.000088997
     0.439107096  0.333673419  0.000055762
     0.172452155  0.600311506  0.000524340
     0.239123371  0.733638574  0.000575129
     0.572431082  0.200289171  0.000413296
     0.639112773  0.333618630  0.000462376
     0.372439808  0.600308022  0.000362844
     0.439116090  0.733637858  0.000494190
     0.572469358  0.400320504  0.000339918
     0.639119408  0.533650873  0.000459610
     0.772445723  0.000315427  0.000596161
     0.839116277  0.133640203  0.000575306
     0.772440513  0.200307432  0.000581033
     0.839120241  0.333635728  0.000585467
     0.772446320  0.400298367  0.000582978
     0.839118980  0.533633964  0.000621100
     0.772456143  0.600308173  0.000595712
     0.839115033  0.733643180  0.000631512
     0.972455313  0.800305582  0.000652233
     0.039114714  0.933643289  0.000598051
     0.172457971  0.800312211  0.000623372
     0.239134551  0.933647193  0.000544850
     0.372451396  0.800316674  0.000551399
     0.439124489  0.933644769  0.000541430
     0.572441101  0.800310054  0.000534535
     0.639115067  0.933638985  0.000587644
     0.772445098  0.800313187  0.000602062
     0.839116614  0.933644338  0.000606830
     0.373021009  0.251226878  0.336358566
     0.420879805  0.189313152  0.338935440
     0.325156981  0.313167186  0.333980371

  ion indices of the primitive-cell ions
   primitive index   ion index
                 1           1
                 2           2
                 3           3
                 4           4
                 5           5
                 6           6
                 7           7
                 8           8
                 9           9
                10          10
                11          11
                12          12
                13          13
                14          14
                15          15
                16          16
                17          17
                18          18
                19          19
                20          20
                21          21
                22          22
                23          23
                24          24
                25          25
                26          26
                27          27
                28          28
                29          29
                30          30
                31          31
                32          32
                33          33
                34          34
                35          35
                36          36
                37          37
                38          38
                39          39
                40          40
                41          41
                42          42
                43          43
                44          44
                45          45
                46          46
                47          47
                48          48
                49          49
                50          50
                51          51
                52          52
                53          53

----------------------------------------------------------------------------------------

 
 
 KPOINTS: auto                                    

Automatic generation of k-mesh.
 Grid dimensions read from file:
 generate k-points for:    1    1    1

 Generating k-lattice:

  Cartesian coordinates                     Fractional coordinates (reciprocal lattice)
     0.081135903  0.046843835  0.000000000     1.000000000 -0.000000000  0.000000000
     0.000000000  0.093687670  0.000000000     0.000000000  1.000000000  0.000000000
     0.000000000  0.000000000  0.040000000     0.000000000  0.000000000  1.000000000

  Length of vectors
     0.093687670  0.093687670  0.040000000

  Shift w.r.t. Gamma in fractional coordinates (k-lattice)
     0.000000000  0.000000000  0.000000000

 
 Subroutine IBZKPT returns following result:
 ===========================================
 
 Found      1 irreducible k-points:
 
 Following reciprocal coordinates:
            Coordinates               Weight
  0.000000  0.000000  0.000000      1.000000
 
 Following cartesian coordinates:
            Coordinates               Weight
  0.000000  0.000000  0.000000      1.000000
 


--------------------------------------------------------------------------------------------------------




 Dimension of arrays:
   k-points           NKPTS =      1   k-points in BZ     NKDIM =      1   number of bands    NBANDS=    136
   number of dos      NEDOS =    301   number of ions     NIONS =     53
   non local maximal  LDIM  =      4   non local SUM 2l+1 LMDIM =      8
   total plane-waves  NPLWV = ******
   max r-space proj   IRMAX =      1   max aug-charges    IRDMAX=  10008
   dimension x,y,z NGX =   128 NGY =  128 NGZ =  270
   dimension x,y,z NGXF=   256 NGYF=  256 NGZF=  540
   support grid    NGXF=   256 NGYF=  256 NGZF=  540
   ions per type =              51   2
   NGX,Y,Z   is equivalent  to a cutoff of  17.27, 17.27, 17.95 a.u.
   NGXF,Y,Z  is equivalent  to a cutoff of  34.53, 34.53, 35.91 a.u.

 SYSTEM =  unknown system                          
 POSCAR =   C  O                                   

 Startparameter for this run:
   NWRITE =      2    write-flag & timer
   PREC   = accura    normal or accurate (medium, high low for compatibility)
   ISTART =      0    job   : 0-new  1-cont  2-samecut
   ICHARG =      2    charge: 1-file 2-atom 10-const
   ISPIN  =      1    spin polarized calculation?
   LNONCOLLINEAR =      F non collinear calculations
   LSORBIT =      F    spin-orbit coupling
   INIWAV =      1    electr: 0-lowe 1-rand  2-diag
   LASPH  =      T    aspherical Exc in radial PAW
 Electronic Relaxation 1
   ENCUT  = 1000.0 eV  73.50 Ry    8.57 a.u.  31.78 31.78 64.46*2*pi/ulx,y,z
   ENINI  = 1000.0     initial cutoff
   ENAUG  =  946.8 eV  augmentation charge cutoff
   NELM   =     60;   NELMIN=  2; NELMDL= -5     # of ELM steps 
   EDIFF  = 0.1E-06   stopping-criterion for ELM
   LREAL  =      F    real-space projection
   NLSPLINE    = F    spline interpolate recip. space projectors
   LCOMPAT=      F    compatible to vasp.4.4
   GGA_COMPAT  = T    GGA compatible to vasp.4.4-vasp.4.6
   LMAXPAW     = -100 max onsite density
   LMAXMIX     =    2 max onsite mixed and CHGCAR
   VOSKOWN=      0    Vosko Wilk Nusair interpolation
   ROPT   =    0.00000   0.00000
 Ionic relaxation
   EDIFFG = 0.1E-05   stopping-criterion for IOM
   NSW    =      0    number of steps for IOM
   NBLOCK =      1;   KBLOCK =      1    inner block; outer block 
   IBRION =     -1    ionic relax: 0-MD 1-quasi-New 2-CG
   NFREE  =      0    steps in history (QN), initial steepest desc. (CG)
   ISIF   =      0    stress and relaxation
   IWAVPR =     10    prediction:  0-non 1-charg 2-wave 3-comb
   ISYM   =      2    0-nonsym 1-usesym 2-fastsym
   LCORR  =      T    Harris-Foulkes like correction to forces

   POTIM  = 0.5000    time-step for ionic-motion
   TEIN   =    0.0    initial temperature
   TEBEG  =    0.0;   TEEND  =   0.0 temperature during run
   SMASS  =  -3.00    Nose mass-parameter (am)
   estimated Nose-frequenzy (Omega)   =  0.10E-29 period in steps = 0.13E+47 mass=  -0.347E-26a.u.
   SCALEE = 1.0000    scale energy and forces
   NPACO  =    256;   APACO  = 16.0  distance and # of slots for P.C.
   PSTRESS=    0.0 pullay stress

  Mass of Ions in am
   POMASS =  12.01 16.00
  Ionic Valenz
   ZVAL   =   4.00  6.00
  Atomic Wigner-Seitz radii
   RWIGS  =  -1.00 -1.00
  virtual crystal weights 
   VCA    =   1.00  1.00
   NELECT =     216.0000    total number of electrons
   NUPDOWN=      -1.0000    fix difference up-down

 DOS related values:
   EMIN   =  10.00;   EMAX   =-10.00  energy-range for DOS
   EFERMI =   0.00
   ISMEAR =     0;   SIGMA  =   0.01  broadening in eV -4-tet -1-fermi 0-gaus

 Electronic relaxation 2 (details)
   IALGO  =     58    algorithm
   LDIAG  =      T    sub-space diagonalisation (order eigenvalues)
   LSUBROT=      F    optimize rotation matrix (better conditioning)
   TURBO    =      0    0=normal 1=particle mesh
   IRESTART =      0    0=no restart 2=restart with 2 vectors
   NREBOOT  =      0    no. of reboots
   NMIN     =      0    reboot dimension
   EREF     =   0.00    reference energy to select bands
   IMIX   =      4    mixing-type and parameters
     AMIX     =   0.40;   BMIX     =  1.00
     AMIX_MAG =   1.60;   BMIX_MAG =  1.00
     AMIN     =   0.10
     WC   =   100.;   INIMIX=   1;  MIXPRE=   1;  MAXMIX= -45

 Intra band minimization:
   WEIMIN = 0.0000     energy-eigenvalue tresh-hold
   EBREAK =  0.18E-09  absolut break condition
   DEPER  =   0.30     relativ break condition  

   TIME   =   0.40     timestep for ELM

  volume/ion in A,a.u.               =      62.05       418.76
  Fermi-wavevector in a.u.,A,eV,Ry     =   0.660508  1.248179  5.935820  0.436270
  Thomas-Fermi vector in A             =   1.732977
 
 Write flags
   LWAVE        =      T    write WAVECAR
   LDOWNSAMPLE  =      F    k-point downsampling of WAVECAR
   LCHARG       =      T    write CHGCAR
   LVTOT        =      F    write LOCPOT, total local potential
   LVHAR        =      F    write LOCPOT, Hartree potential only
   LELF         =      F    write electronic localiz. function (ELF)
   LORBIT       =      0    0 simple, 1 ext, 2 COOP (PROOUT), +10 PAW based schemes


 Dipole corrections
   LMONO  =      F    monopole corrections only (constant potential shift)
   LDIPOL =      F    correct potential (dipole corrections)
   IDIPOL =      0    1-x, 2-y, 3-z, 4-all directions 
   EPSILON=  1.0000000 bulk dielectric constant

 Exchange correlation treatment:
   GGA     =    MK    GGA type
   LEXCH   =    43    internal setting for exchange type
   VOSKOWN=      0    Vosko Wilk Nusair interpolation
   LHFCALC =     F    Hartree Fock is set to
   LHFONE  =     F    Hartree Fock one center treatment
   AEXX    =    0.0000 exact exchange contribution

 vdW DFT:
   LUSE_VDW   =     T    switch on vdW DFT
   Zab_VDW    =-.8491    correlation parameter
   PARAM1     =0.1234
   PARAM2     =1.0000
   PARAM3     =0.0000
   -- rVV10 --
   BPARAM     = 6.3000
   CPARAM     = 0.0093

 Linear response parameters
   LEPSILON=     F    determine dielectric tensor
   LRPA    =     F    only Hartree local field effects (RPA)
   LNABLA  =     F    use nabla operator in PAW spheres
   LVEL    =     F    velocity operator in full k-point grid
   LINTERFAST=   F  fast interpolation
   KINTER  =     0    interpolate to denser k-point grid
   CSHIFT  =0.1000    complex shift for real part using Kramers Kronig
   OMEGAMAX=  -1.0    maximum frequency
   DEG_THRESHOLD= 0.2000000E-02 threshold for treating states as degnerate
   RTIME   =   -0.100 relaxation time in fs
  (WPLASMAI=    0.000 imaginary part of plasma frequency in eV, 0.658/RTIME)
   DFIELD  = 0.0000000 0.0000000 0.0000000 field for delta impulse in time
 
 Orbital magnetization related:
   ORBITALMAG=     F  switch on orbital magnetization
   LCHIMAG   =     F  perturbation theory with respect to B field
   DQ        =  0.001000  dq finite difference perturbation B field
   LLRAUG    =     F  two centre corrections for induced B field



--------------------------------------------------------------------------------------------------------


 Static calculation
 charge density and potential will be updated during run
 non-spin polarized calculation
 Conjugate gradient for all bands (Freysoldt, et al. PRB 79, 241103 (2009))
 preconditioned conjugated gradient                                        
 perform sub-space diagonalisation
    before iterative eigenvector-optimisation
 modified Broyden-mixing scheme, WC =      100.0
 initial mixing is a Kerker type mixing with AMIX =  0.4000 and BMIX =      1.0000
 Hartree-type preconditioning will be used
 using additional bands           28
 reciprocal scheme for non local part
 use partial core corrections
 no Harris-corrections to forces 
 use gradient corrections 
 use of overlap-Matrix (Vanderbilt PP)
 Gauss-broadening in eV      SIGMA  =   0.01


--------------------------------------------------------------------------------------------------------


  energy-cutoff  :     1000.00
  volume of cell :     3288.85
      direct lattice vectors                 reciprocal lattice vectors
    12.325000000  0.000000000  0.000000000     0.081135903  0.046843835  0.000000000
    -6.162500000 10.673763102  0.000000000     0.000000000  0.093687670  0.000000000
     0.000000000  0.000000000 25.000000000     0.000000000  0.000000000  0.040000000

  length of vectors
    12.325000000 12.325000000 25.000000000     0.093687670  0.093687670  0.040000000


 
 k-points in units of 2pi/SCALE and weight: auto                                    
   0.00000000  0.00000000  0.00000000       1.000
 
 k-points in reciprocal lattice and weights: auto                                    
   0.00000000  0.00000000  0.00000000       1.000
 
 position of ions in fractional coordinates (direct lattice) 
   0.97245084  0.00032082  0.00056671
   0.03911838  0.13365950  0.00044017
   0.17244363  0.00029545  0.00049963
   0.23909628  0.13364792  0.00025647
   0.97245206  0.20032201  0.00048522
   0.03912836  0.33364377  0.00044415
   0.17245176  0.20035455  0.00021917
   0.23912436  0.33366572  0.00007226
   0.37246557  0.00032440  0.00045391
   0.43913747  0.13361994  0.00025834
   0.97244982  0.40030936  0.00054761
   0.03912498  0.53363679  0.00057341
   0.37241618  0.40032948  0.00000000
   0.43909960  0.53363898  0.00023241
   0.57244368  0.00031213  0.00055958
   0.63911021  0.13363175  0.00054727
   0.97245270  0.60030565  0.00064029
   0.03912449  0.73364036  0.00065451
   0.57243347  0.60030624  0.00040289
   0.63911189  0.73364188  0.00052791
   0.17245463  0.40031823  0.00028904
   0.23912018  0.53363655  0.00037851
   0.37245975  0.20029599  0.00008900
   0.43910710  0.33367342  0.00005576
   0.17245216  0.60031151  0.00052434
   0.23912337  0.73363857  0.00057513
   0.57243108  0.20028917  0.00041330
   0.63911277  0.33361863  0.00046238
   0.37243981  0.60030802  0.00036284
   0.43911609  0.73363786  0.00049419
   0.57246936  0.40032050  0.00033992
   0.63911941  0.53365087  0.00045961
   0.77244572  0.00031543  0.00059616
   0.83911628  0.13364020  0.00057531
   0.77244051  0.20030743  0.00058103
   0.83912024  0.33363573  0.00058547
   0.77244632  0.40029837  0.00058298
   0.83911898  0.53363396  0.00062110
   0.77245614  0.60030817  0.00059571
   0.83911503  0.73364318  0.00063151
   0.97245531  0.80030558  0.00065223
   0.03911471  0.93364329  0.00059805
   0.17245797  0.80031221  0.00062337
   0.23913455  0.93364719  0.00054485
   0.37245140  0.80031667  0.00055140
   0.43912449  0.93364477  0.00054143
   0.57244110  0.80031005  0.00053453
   0.63911507  0.93363899  0.00058764
   0.77244510  0.80031319  0.00060206
   0.83911661  0.93364434  0.00060683
   0.37302101  0.25122688  0.33635857
   0.42087980  0.18931315  0.33893544
   0.32515698  0.31316719  0.33398037
 
 position of ions in cartesian coordinates  (Angst):
  11.98347958  0.00342433  0.01416777
  -0.34154264  1.42664989  0.01100432
   2.12354700  0.00315355  0.01249070
   2.12325634  1.42652621  0.00641170
  10.75098721  2.13818970  0.01213047
  -1.57382270  3.56123457  0.01110375
   0.89078307  2.13853702  0.00547917
   0.89099273  3.56146885  0.00180651
   4.58863896  0.00346260  0.01134782
   4.58893648  1.42622757  0.00645846
   9.51853763  4.27280730  0.01369027
  -2.80632132  5.69591267  0.01433526
   2.12299894  4.27302204  0.00000000
   2.12335237  5.69593607  0.00581036
   7.05344483  0.00333155  0.01398950
   7.05352764  1.42635365  0.01368187
   8.28609598  6.40752033  0.01600723
  -4.03884931  7.83070339  0.01636283
   3.35585531  6.40752662  0.01007237
   3.35598594  7.83071962  0.01319763
  -0.34145776  4.27290193  0.00722612
  -0.34137895  5.69591010  0.00946273
   3.35624236  2.13791198  0.00222492
   3.35573251  3.56155103  0.00139405
  -1.57394684  6.40758280  0.01310850
  -1.57385216  7.83068434  0.01437823
   5.82093107  2.13783916  0.01033241
   5.82114012  3.56096622  0.01155939
   0.89092245  6.40754561  0.00907111
   0.89106251  7.83067670  0.01235474
   4.58870974  4.27292622  0.00849795
   4.58852320  5.69606300  0.01149026
   9.51844972  0.00336679  0.01490402
   9.51855036  1.42644387  0.01438264
   8.28593477  2.13803408  0.01452582
   8.28612680  3.56114872  0.01463668
   7.05356221  4.27268994  0.01457444
   7.05362213  5.69588251  0.01552751
   5.82112285  6.40754723  0.01489279
   5.82101669  7.83073350  0.01578780
   7.05362858  8.54227219  0.01630582
  -5.27148792  9.96548729  0.01495127
  -2.80637951  8.54234295  0.01558431
  -2.80626749  9.96552896  0.01362126
  -0.34148805  8.54239058  0.01378498
  -0.34137657  9.96550309  0.01353576
   2.12342586  8.54231992  0.01336337
   2.12354296  9.96544135  0.01469111
   4.58845581  8.54235337  0.01505154
   4.58852904  9.96549848  0.01517076
   3.04929830  2.68153618  8.40896415
   4.02070129  2.02068374  8.47338601
   2.07766701  3.34267235  8.34950928
 


--------------------------------------------------------------------------------------------------------


 k-point   1 :   0.0000 0.0000 0.0000  plane waves:  236157

 maximum and minimum number of plane-waves per node :      8440     8428

 maximum number of plane-waves:    236157
 maximum index in each direction: 
   IXMAX=   31   IYMAX=   31   IZMAX=   64
   IXMIN=  -31   IYMIN=  -31   IZMIN=  -64


 parallel 3D FFT for wavefunctions:
    minimum data exchange during FFTs selected (reduces bandwidth)
 parallel 3D FFT for charge:
    minimum data exchange during FFTs selected (reduces bandwidth)


 total amount of memory used by VASP MPI-rank0   100580. kBytes
=======================================================================

   base      :      30000. kBytes
   nonl-proj :       8229. kBytes
   fftplans  :      18352. kBytes
   grid      :      30208. kBytes
   one-center:          6. kBytes
   wavefun   :      13785. kBytes
 
     INWAV:  cpu time    0.0000: real time    0.0000
 Broyden mixing: mesh for mixing (old mesh)
   NGX = 63   NGY = 63   NGZ =129
  (NGX  =256   NGY  =256   NGZ  =540)
  gives a total of 512001 points

 initial charge density was supplied:
 charge density of overlapping atoms calculated
 number of electron     216.0000000 magnetization 
 keeping initial charge density in first step


--------------------------------------------------------------------------------------------------------


 Maximum index for augmentation-charges          471 (set IRDMAX)


--------------------------------------------------------------------------------------------------------


 First call to EWALD:  gamma=   0.119
 Maximum number of real-space cells 4x 4x 2
 Maximum number of reciprocal cells 2x 2x 4

    FEWALD:  cpu time    0.0024: real time    0.0024


--------------------------------------- Iteration      1(   1)  ---------------------------------------


vdW kernel read from vdw_kernel.bindat
  0.0000  0.2424  0.5071  0.7962  1.1119  1.4567  1.8333  2.2446  2.6937  3.1842
  3.7199  4.3049  4.9438  5.6415  6.4036  7.2358  8.1446  9.1372 10.2212 11.4050
 12.6979 14.1099 15.6519 17.3360 19.1751 21.1837 23.3773 25.7729 28.3892 31.2465
 34.3669 37.7748 41.4965 45.5611 50.0000
 
    POTLOK:  cpu time    4.4779: real time    4.5238
    SETDIJ:  cpu time    0.0562: real time    0.0565
    TRIAL :  cpu time    2.1093: real time    2.1298
    CORREC:  cpu time    0.0005: real time    0.0007
    --------------------------------------------
      LOOP:  cpu time    6.6497: real time    6.7284

 eigenvalue-minimisations  :   296
 total energy-change (2. order) : 0.2717474E+04  (-0.1021342E+05)
 number of electron     216.0000000 magnetization 
 augmentation part      216.0000000 magnetization 

 Free energy of the ion-electron system (eV)
  ---------------------------------------------------
  alpha Z        PSCENC =        47.94900195
  Ewald energy   TEWEN  =     41309.03722986
  -Hartree energ DENC   =    -47378.26075386
  -exchange      EXHF   =         0.00000000
  -V(xc)+E(xc)   XCENC  =       414.11393637
  PAW double counting   =      6552.85433684    -6257.21772958
  entropy T*S    EENTRO =        -0.00000000
  eigenvalues    EBANDS =      -386.03709325
  atomic energy  EATOM  =      8415.03548706
  ---------------------------------------------------
  free energy    TOTEN  =      2717.47441539 eV

  energy without entropy =     2717.47441539  energy(sigma->0) =     2717.47441539


--------------------------------------------------------------------------------------------------------




--------------------------------------- Iteration      1(   2)  ---------------------------------------


    TRIAL :  cpu time    2.8515: real time    2.8767
    CORREC:  cpu time    0.0001: real time    0.0001
    --------------------------------------------
      LOOP:  cpu time    2.8972: real time    2.9279

 eigenvalue-minimisations  :   448
 total energy-change (2. order) :-0.2278477E+04  (-0.2124119E+04)
 number of electron     216.0000000 magnetization 
 augmentation part      216.0000000 magnetization 

 Free energy of the ion-electron system (eV)
  ---------------------------------------------------
  alpha Z        PSCENC =        47.94900195
  Ewald energy   TEWEN  =     41309.03722986
  -Hartree energ DENC   =    -47378.26075386
  -exchange      EXHF   =         0.00000000
  -V(xc)+E(xc)   XCENC  =       414.11393637
  PAW double counting   =      6552.85433684    -6257.21772958
  entropy T*S    EENTRO =        -0.00000000
  eigenvalues    EBANDS =     -2664.51445075
  atomic energy  EATOM  =      8415.03548706
  ---------------------------------------------------
  free energy    TOTEN  =       438.99705789 eV

  energy without entropy =      438.99705789  energy(sigma->0) =      438.99705789


--------------------------------------------------------------------------------------------------------




--------------------------------------- Iteration      1(   3)  ---------------------------------------


    TRIAL :  cpu time    2.3238: real time    2.3432
    CORREC:  cpu time    0.0001: real time    0.0000
    --------------------------------------------
      LOOP:  cpu time    2.4065: real time    2.4265

 eigenvalue-minimisations  :   344
 total energy-change (2. order) :-0.8129344E+03  (-0.7994483E+03)
 number of electron     216.0000000 magnetization 
 augmentation part      216.0000000 magnetization 

 Free energy of the ion-electron system (eV)
  ---------------------------------------------------
  alpha Z        PSCENC =        47.94900195
  Ewald energy   TEWEN  =     41309.03722986
  -Hartree energ DENC   =    -47378.26075386
  -exchange      EXHF   =         0.00000000
  -V(xc)+E(xc)   XCENC  =       414.11393637
  PAW double counting   =      6552.85433684    -6257.21772958
  entropy T*S    EENTRO =        -0.00000000
  eigenvalues    EBANDS =     -3477.44882354
  atomic energy  EATOM  =      8415.03548706
  ---------------------------------------------------
  free energy    TOTEN  =      -373.93731490 eV

  energy without entropy =     -373.93731490  energy(sigma->0) =     -373.93731490


--------------------------------------------------------------------------------------------------------




--------------------------------------- Iteration      1(   4)  ---------------------------------------


    TRIAL :  cpu time    2.2391: real time    2.2580
    CORREC:  cpu time    0.0000: real time    0.0000
    --------------------------------------------
      LOOP:  cpu time    2.2881: real time    2.3208

 eigenvalue-minimisations  :   328
 total energy-change (2. order) :-0.7379337E+02  (-0.7300482E+02)
 number of electron     216.0000000 magnetization 
 augmentation part      216.0000000 magnetization 

 Free energy of the ion-electron system (eV)
  ---------------------------------------------------
  alpha Z        PSCENC =        47.94900195
  Ewald energy   TEWEN  =     41309.03722986
  -Hartree energ DENC   =    -47378.26075386
  -exchange      EXHF   =         0.00000000
  -V(xc)+E(xc)   XCENC  =       414.11393637
  PAW double counting   =      6552.85433684    -6257.21772958
  entropy T*S    EENTRO =        -0.00000000
  eigenvalues    EBANDS =     -3551.24219024
  atomic energy  EATOM  =      8415.03548706
  ---------------------------------------------------
  free energy    TOTEN  =      -447.73068160 eV

  energy without entropy =     -447.73068160  energy(sigma->0) =     -447.73068160


--------------------------------------------------------------------------------------------------------




--------------------------------------- Iteration      1(   5)  ---------------------------------------


    TRIAL :  cpu time    2.4422: real time    2.4633
    CORREC:  cpu time    0.0001: real time    0.0001
    CHARGE:  cpu time    0.1780: real time    0.1801
    --------------------------------------------
      LOOP:  cpu time    2.6598: real time    2.6844

 eigenvalue-minimisations  :   368
 total energy-change (2. order) :-0.2239722E+01  (-0.2224535E+01)
 number of electron     216.0000000 magnetization 
 augmentation part       -0.2527083 magnetization 

 Free energy of the ion-electron system (eV)
  ---------------------------------------------------
  alpha Z        PSCENC =        47.94900195
  Ewald energy   TEWEN  =     41309.03722986
  -Hartree energ DENC   =    -47378.26075386
  -exchange      EXHF   =         0.00000000
  -V(xc)+E(xc)   XCENC  =       414.11393637
  PAW double counting   =      6552.85433684    -6257.21772958
  entropy T*S    EENTRO =        -0.00000000
  eigenvalues    EBANDS =     -3553.48191240
  atomic energy  EATOM  =      8415.03548706
  ---------------------------------------------------
  free energy    TOTEN  =      -449.97040376 eV

  energy without entropy =     -449.97040376  energy(sigma->0) =     -449.97040376


--------------------------------------------------------------------------------------------------------




--------------------------------------- Iteration      1(   6)  ---------------------------------------


    POTLOK:  cpu time    4.1334: real time    4.1670
    SETDIJ:  cpu time    0.0544: real time    0.0546
    TRIAL :  cpu time    1.1582: real time    1.1729
    CORREC:  cpu time    4.6131: real time    4.6505
    CHARGE:  cpu time    0.1755: real time    0.1773
    --------------------------------------------
      LOOP:  cpu time   10.2232: real time   10.3127

 eigenvalue-minimisations  :     0
 total energy-change (2. order) : 0.5111730E+02  (-0.1582525E+02)
 number of electron     216.0000000 magnetization 
 augmentation part       -0.3452319 magnetization 

 Free energy of the ion-electron system (eV)
  ---------------------------------------------------
  alpha Z        PSCENC =        47.94900195
  Ewald energy   TEWEN  =     41309.03722986
  -Hartree energ DENC   =    -48813.05973377
  -exchange      EXHF   =         0.00000000
  -V(xc)+E(xc)   XCENC  =       461.71662174
  PAW double counting   =     85900.14890205   -85609.51468674
  entropy T*S    EENTRO =        -0.00000000
  eigenvalues    EBANDS =     -2110.16593054
  atomic energy  EATOM  =      8415.03548706
  ---------------------------------------------------
  free energy    TOTEN  =      -398.85310839 eV

  energy without entropy =     -398.85310839  energy(sigma->0) =     -398.85310839


--------------------------------------------------------------------------------------------------------




--------------------------------------- Iteration      1(   7)  ---------------------------------------


    POTLOK:  cpu time    4.1446: real time    4.1743
    SETDIJ:  cpu time    0.0547: real time    0.0549
    TRIAL :  cpu time    1.1565: real time    1.1669
    CORREC:  cpu time    4.6245: real time    4.6605
    CHARGE:  cpu time    0.1756: real time    0.1774
    --------------------------------------------
      LOOP:  cpu time   10.2522: real time   10.3320

 eigenvalue-minimisations  :     0
 total energy-change (2. order) :-0.1587551E+02  (-0.1847517E+01)
 number of electron     216.0000000 magnetization 
 augmentation part       -0.3895834 magnetization 

 Free energy of the ion-electron system (eV)
  ---------------------------------------------------
  alpha Z        PSCENC =        47.94900195
  Ewald energy   TEWEN  =     41309.03722986
  -Hartree energ DENC   =    -48298.32791153
  -exchange      EXHF   =         0.00000000
  -V(xc)+E(xc)   XCENC  =       444.64478421
  PAW double counting   =    101015.12738593  -100722.08425045
  entropy T*S    EENTRO =        -0.00000000
  eigenvalues    EBANDS =     -2626.11034382
  atomic energy  EATOM  =      8415.03548706
  ---------------------------------------------------
  free energy    TOTEN  =      -414.72861680 eV

  energy without entropy =     -414.72861680  energy(sigma->0) =     -414.72861680


--------------------------------------------------------------------------------------------------------




--------------------------------------- Iteration      1(   8)  ---------------------------------------


    POTLOK:  cpu time    4.1412: real time    4.1713
    SETDIJ:  cpu time    0.0543: real time    0.0545
    TRIAL :  cpu time    1.1549: real time    1.1652
    CORREC:  cpu time    4.6084: real time    4.6450
    CHARGE:  cpu time    0.1759: real time    0.1777
    --------------------------------------------
      LOOP:  cpu time   10.1521: real time   10.2569

 eigenvalue-minimisations  :     0
 total energy-change (2. order) :-0.1845933E+01  (-0.5003177E+00)
 number of electron     216.0000000 magnetization 
 augmentation part       -0.4070226 magnetization 

 Free energy of the ion-electron system (eV)
  ---------------------------------------------------
  alpha Z        PSCENC =        47.94900195
  Ewald energy   TEWEN  =     41309.03722986
  -Hartree energ DENC   =    -48269.50471240
  -exchange      EXHF   =         0.00000000
  -V(xc)+E(xc)   XCENC  =       444.12258488
  PAW double counting   =    104999.53283758  -104706.21195560
  entropy T*S    EENTRO =        -0.00000000
  eigenvalues    EBANDS =     -2656.53502335
  atomic energy  EATOM  =      8415.03548706
  ---------------------------------------------------
  free energy    TOTEN  =      -416.57455002 eV

  energy without entropy =     -416.57455002  energy(sigma->0) =     -416.57455002


--------------------------------------------------------------------------------------------------------




--------------------------------------- Iteration      1(   9)  ---------------------------------------


    POTLOK:  cpu time    4.1794: real time    4.2185
    SETDIJ:  cpu time    0.0544: real time    0.0546
    TRIAL :  cpu time    1.1696: real time    1.1804
    CORREC:  cpu time    4.6099: real time    4.6471
    CHARGE:  cpu time    0.1752: real time    0.1772
    --------------------------------------------
      LOOP:  cpu time   10.2021: real time   10.3421

 eigenvalue-minimisations  :     0
 total energy-change (2. order) :-0.5002461E+00  (-0.1841988E+00)
 number of electron     216.0000000 magnetization 
 augmentation part       -0.4154923 magnetization 

 Free energy of the ion-electron system (eV)
  ---------------------------------------------------
  alpha Z        PSCENC =        47.94900195
  Ewald energy   TEWEN  =     41309.03722986
  -Hartree energ DENC   =    -48285.92458247
  -exchange      EXHF   =         0.00000000
  -V(xc)+E(xc)   XCENC  =       444.31429373
  PAW double counting   =    107615.02090954  -107321.58145005
  entropy T*S    EENTRO =        -0.00000000
  eigenvalues    EBANDS =     -2640.92568574
  atomic energy  EATOM  =      8415.03548706
  ---------------------------------------------------
  free energy    TOTEN  =      -417.07479612 eV

  energy without entropy =     -417.07479612  energy(sigma->0) =     -417.07479612


--------------------------------------------------------------------------------------------------------




--------------------------------------- Iteration      1(  10)  ---------------------------------------


    POTLOK:  cpu time    4.1409: real time    4.1713
    SETDIJ:  cpu time    0.0545: real time    0.0547
    TRIAL :  cpu time    1.1553: real time    1.1659
    CORREC:  cpu time    4.6981: real time    4.7413
    CHARGE:  cpu time    0.1740: real time    0.1781
    --------------------------------------------
      LOOP:  cpu time   10.2726: real time   10.3705

 eigenvalue-minimisations  :     0
 total energy-change (2. order) :-0.1837259E+00  (-0.8599754E-01)
 number of electron     216.0000000 magnetization 
 augmentation part       -0.4157194 magnetization 

 Free energy of the ion-electron system (eV)
  ---------------------------------------------------
  alpha Z        PSCENC =        47.94900195
  Ewald energy   TEWEN  =     41309.03722986
  -Hartree energ DENC   =    -48284.50477588
  -exchange      EXHF   =         0.00000000
  -V(xc)+E(xc)   XCENC  =       444.17545065
  PAW double counting   =    108119.54193179  -107826.02154411
  entropy T*S    EENTRO =        -0.00000000
  eigenvalues    EBANDS =     -2642.47130338
  atomic energy  EATOM  =      8415.03548706
  ---------------------------------------------------
  free energy    TOTEN  =      -417.25852206 eV

  energy without entropy =     -417.25852206  energy(sigma->0) =     -417.25852206


--------------------------------------------------------------------------------------------------------




--------------------------------------- Iteration      1(  11)  ---------------------------------------


    POTLOK:  cpu time    4.2805: real time    4.3119
    SETDIJ:  cpu time    0.0544: real time    0.0547
    TRIAL :  cpu time    1.1550: real time    1.1655
    CORREC:  cpu time    4.6589: real time    4.6959
    CHARGE:  cpu time    0.1759: real time    0.1776
    --------------------------------------------
      LOOP:  cpu time   10.3923: real time   10.4750

 eigenvalue-minimisations  :     0
 total energy-change (2. order) :-0.8555773E-01  (-0.3580197E-01)
 number of electron     216.0000000 magnetization 
 augmentation part       -0.4150663 magnetization 

 Free energy of the ion-electron system (eV)
  ---------------------------------------------------
  alpha Z        PSCENC =        47.94900195
  Ewald energy   TEWEN  =     41309.03722986
  -Hartree energ DENC   =    -48277.78532768
  -exchange      EXHF   =         0.00000000
  -V(xc)+E(xc)   XCENC  =       444.08578896
  PAW double counting   =    107644.68790666  -107351.17128459
  entropy T*S    EENTRO =        -0.00000000
  eigenvalues    EBANDS =     -2649.18288202
  atomic energy  EATOM  =      8415.03548706
  ---------------------------------------------------
  free energy    TOTEN  =      -417.34407980 eV

  energy without entropy =     -417.34407980  energy(sigma->0) =     -417.34407980


--------------------------------------------------------------------------------------------------------




--------------------------------------- Iteration      1(  12)  ---------------------------------------


    POTLOK:  cpu time    4.1391: real time    4.1854
    SETDIJ:  cpu time    0.0542: real time    0.0545
    TRIAL :  cpu time    1.1462: real time    1.1634
    CORREC:  cpu time    4.6037: real time    4.6596
    CHARGE:  cpu time    0.1755: real time    0.1786
    --------------------------------------------
      LOOP:  cpu time   10.1498: real time   10.2968

 eigenvalue-minimisations  :     0
 total energy-change (2. order) :-0.3567375E-01  (-0.1133933E-01)
 number of electron     216.0000000 magnetization 
 augmentation part       -0.4147804 magnetization 

 Free energy of the ion-electron system (eV)
  ---------------------------------------------------
  alpha Z        PSCENC =        47.94900195
  Ewald energy   TEWEN  =     41309.03722986
  -Hartree energ DENC   =    -48274.41221366
  -exchange      EXHF   =         0.00000000
  -V(xc)+E(xc)   XCENC  =       444.00464981
  PAW double counting   =    107270.02354931  -106976.52415569
  entropy T*S    EENTRO =        -0.00000000
  eigenvalues    EBANDS =     -2652.49330220
  atomic energy  EATOM  =      8415.03548706
  ---------------------------------------------------
  free energy    TOTEN  =      -417.37975355 eV

  energy without entropy =     -417.37975355  energy(sigma->0) =     -417.37975355


--------------------------------------------------------------------------------------------------------




--------------------------------------- Iteration      1(  13)  ---------------------------------------


    POTLOK:  cpu time    4.1404: real time    4.1701
    SETDIJ:  cpu time    0.0544: real time    0.0546
    TRIAL :  cpu time    1.1591: real time    1.1695
    CORREC:  cpu time    4.6265: real time    4.6617
    CHARGE:  cpu time    0.1756: real time    0.1773
    --------------------------------------------
      LOOP:  cpu time   10.2412: real time   10.3230

 eigenvalue-minimisations  :     0
 total energy-change (2. order) :-0.1133319E-01  (-0.3276042E-02)
 number of electron     216.0000000 magnetization 
 augmentation part       -0.4140805 magnetization 

 Free energy of the ion-electron system (eV)
  ---------------------------------------------------
  alpha Z        PSCENC =        47.94900195
  Ewald energy   TEWEN  =     41309.03722986
  -Hartree energ DENC   =    -48274.43521738
  -exchange      EXHF   =         0.00000000
  -V(xc)+E(xc)   XCENC  =       444.00247985
  PAW double counting   =    107125.41828843  -106831.92960066
  entropy T*S    EENTRO =        -0.00000000
  eigenvalues    EBANDS =     -2652.46875585
  atomic energy  EATOM  =      8415.03548706
  ---------------------------------------------------
  free energy    TOTEN  =      -417.39108674 eV

  energy without entropy =     -417.39108674  energy(sigma->0) =     -417.39108674


--------------------------------------------------------------------------------------------------------




--------------------------------------- Iteration      1(  14)  ---------------------------------------


    POTLOK:  cpu time    4.1514: real time    4.1810
    SETDIJ:  cpu time    0.0544: real time    0.0546
    TRIAL :  cpu time    1.1530: real time    1.1639
    CORREC:  cpu time    4.6357: real time    4.6733
    CHARGE:  cpu time    0.1766: real time    0.1788
    --------------------------------------------
      LOOP:  cpu time   10.2156: real time   10.3111

 eigenvalue-minimisations  :     0
 total energy-change (2. order) :-0.3278090E-02  (-0.1136624E-02)
 number of electron     216.0000000 magnetization 
 augmentation part       -0.4136828 magnetization 

 Free energy of the ion-electron system (eV)
  ---------------------------------------------------
  alpha Z        PSCENC =        47.94900195
  Ewald energy   TEWEN  =     41309.03722986
  -Hartree energ DENC   =    -48274.40159710
  -exchange      EXHF   =         0.00000000
  -V(xc)+E(xc)   XCENC  =       444.00114582
  PAW double counting   =    107118.00303452  -106824.51836078
  entropy T*S    EENTRO =        -0.00000000
  eigenvalues    EBANDS =     -2652.50030617
  atomic energy  EATOM  =      8415.03548706
  ---------------------------------------------------
  free energy    TOTEN  =      -417.39436483 eV

  energy without entropy =     -417.39436483  energy(sigma->0) =     -417.39436483


--------------------------------------------------------------------------------------------------------




--------------------------------------- Iteration      1(  15)  ---------------------------------------


    POTLOK:  cpu time    4.1708: real time    4.2013
    SETDIJ:  cpu time    0.0545: real time    0.0547
    TRIAL :  cpu time    1.1527: real time    1.1633
    CORREC:  cpu time    4.6487: real time    4.6853
    CHARGE:  cpu time    0.1745: real time    0.1764
    --------------------------------------------
      LOOP:  cpu time   10.2395: real time   10.3348

 eigenvalue-minimisations  :     0
 total energy-change (2. order) :-0.1139088E-02  (-0.5471374E-03)
 number of electron     216.0000000 magnetization 
 augmentation part       -0.4131915 magnetization 

 Free energy of the ion-electron system (eV)
  ---------------------------------------------------
  alpha Z        PSCENC =        47.94900195
  Ewald energy   TEWEN  =     41309.03722986
  -Hartree energ DENC   =    -48274.05493927
  -exchange      EXHF   =         0.00000000
  -V(xc)+E(xc)   XCENC  =       443.98264713
  PAW double counting   =    107108.82075542  -106815.33479149
  entropy T*S    EENTRO =        -0.00000000
  eigenvalues    EBANDS =     -2652.83089458
  atomic energy  EATOM  =      8415.03548706
  ---------------------------------------------------
  free energy    TOTEN  =      -417.39550392 eV

  energy without entropy =     -417.39550392  energy(sigma->0) =     -417.39550392


--------------------------------------------------------------------------------------------------------




--------------------------------------- Iteration      1(  16)  ---------------------------------------


    POTLOK:  cpu time    4.1442: real time    4.1749
    SETDIJ:  cpu time    0.0544: real time    0.0546
    TRIAL :  cpu time    1.1531: real time    1.1637
    CORREC:  cpu time    4.6639: real time    4.7124
    CHARGE:  cpu time    0.1748: real time    0.1773
    --------------------------------------------
      LOOP:  cpu time   10.2744: real time   10.3686

 eigenvalue-minimisations  :     0
 total energy-change (2. order) :-0.5489450E-03  (-0.2843566E-03)
 number of electron     216.0000000 magnetization 
 augmentation part       -0.4130426 magnetization 

 Free energy of the ion-electron system (eV)
  ---------------------------------------------------
  alpha Z        PSCENC =        47.94900195
  Ewald energy   TEWEN  =     41309.03722986
  -Hartree energ DENC   =    -48274.47348409
  -exchange      EXHF   =         0.00000000
  -V(xc)+E(xc)   XCENC  =       443.99652417
  PAW double counting   =    107050.95246641  -106757.46845407
  entropy T*S    EENTRO =        -0.00000000
  eigenvalues    EBANDS =     -2652.42482415
  atomic energy  EATOM  =      8415.03548706
  ---------------------------------------------------
  free energy    TOTEN  =      -417.39605287 eV

  energy without entropy =     -417.39605287  energy(sigma->0) =     -417.39605287


--------------------------------------------------------------------------------------------------------




--------------------------------------- Iteration      1(  17)  ---------------------------------------


    POTLOK:  cpu time    4.1573: real time    4.1879
    SETDIJ:  cpu time    0.0546: real time    0.0548
    TRIAL :  cpu time    1.1522: real time    1.1653
    CORREC:  cpu time    4.6139: real time    4.6587
    CHARGE:  cpu time    0.1746: real time    0.1766
    --------------------------------------------
      LOOP:  cpu time   10.1948: real time   10.3016

 eigenvalue-minimisations  :     0
 total energy-change (2. order) :-0.2857614E-03  (-0.1227644E-03)
 number of electron     216.0000000 magnetization 
 augmentation part       -0.4131104 magnetization 

 Free energy of the ion-electron system (eV)
  ---------------------------------------------------
  alpha Z        PSCENC =        47.94900195
  Ewald energy   TEWEN  =     41309.03722986
  -Hartree energ DENC   =    -48274.63194378
  -exchange      EXHF   =         0.00000000
  -V(xc)+E(xc)   XCENC  =       443.99777393
  PAW double counting   =    106994.50210352  -106701.01734852
  entropy T*S    EENTRO =        -0.00000000
  eigenvalues    EBANDS =     -2652.26864264
  atomic energy  EATOM  =      8415.03548706
  ---------------------------------------------------
  free energy    TOTEN  =      -417.39633863 eV

  energy without entropy =     -417.39633863  energy(sigma->0) =     -417.39633863


--------------------------------------------------------------------------------------------------------




--------------------------------------- Iteration      1(  18)  ---------------------------------------


    POTLOK:  cpu time    4.1378: real time    4.1742
    SETDIJ:  cpu time    0.0544: real time    0.0546
    TRIAL :  cpu time    1.1515: real time    1.1655
    CORREC:  cpu time    4.6112: real time    4.6536
    CHARGE:  cpu time    0.1754: real time    0.1774
    --------------------------------------------
      LOOP:  cpu time   10.1747: real time   10.2746

 eigenvalue-minimisations  :     0
 total energy-change (2. order) :-0.1227982E-03  (-0.4895869E-04)
 number of electron     216.0000000 magnetization 
 augmentation part       -0.4133110 magnetization 

 Free energy of the ion-electron system (eV)
  ---------------------------------------------------
  alpha Z        PSCENC =        47.94900195
  Ewald energy   TEWEN  =     41309.03722986
  -Hartree energ DENC   =    -48274.70406251
  -exchange      EXHF   =         0.00000000
  -V(xc)+E(xc)   XCENC  =       444.00088785
  PAW double counting   =    106982.01105780  -106688.52591624
  entropy T*S    EENTRO =        -0.00000000
  eigenvalues    EBANDS =     -2652.20014720
  atomic energy  EATOM  =      8415.03548706
  ---------------------------------------------------
  free energy    TOTEN  =      -417.39646142 eV

  energy without entropy =     -417.39646142  energy(sigma->0) =     -417.39646142


--------------------------------------------------------------------------------------------------------




--------------------------------------- Iteration      1(  19)  ---------------------------------------


    POTLOK:  cpu time    4.1331: real time    4.1677
    SETDIJ:  cpu time    0.0545: real time    0.0547
    TRIAL :  cpu time    1.1514: real time    1.1643
    CORREC:  cpu time    4.6048: real time    4.6457
    CHARGE:  cpu time    0.1754: real time    0.1774
    --------------------------------------------
      LOOP:  cpu time   10.1644: real time   10.2671

 eigenvalue-minimisations  :     0
 total energy-change (2. order) :-0.4852172E-04  (-0.2045358E-04)
 number of electron     216.0000000 magnetization 
 augmentation part       -0.4134099 magnetization 

 Free energy of the ion-electron system (eV)
  ---------------------------------------------------
  alpha Z        PSCENC =        47.94900195
  Ewald energy   TEWEN  =     41309.03722986
  -Hartree energ DENC   =    -48274.68242394
  -exchange      EXHF   =         0.00000000
  -V(xc)+E(xc)   XCENC  =       443.99972697
  PAW double counting   =    106995.34878182  -106701.86282065
  entropy T*S    EENTRO =        -0.00000000
  eigenvalues    EBANDS =     -2652.22149301
  atomic energy  EATOM  =      8415.03548706
  ---------------------------------------------------
  free energy    TOTEN  =      -417.39650995 eV

  energy without entropy =     -417.39650995  energy(sigma->0) =     -417.39650995


--------------------------------------------------------------------------------------------------------




--------------------------------------- Iteration      1(  20)  ---------------------------------------


    POTLOK:  cpu time    4.1359: real time    4.1709
    SETDIJ:  cpu time    0.0544: real time    0.0547
    TRIAL :  cpu time    1.1516: real time    1.1646
    CORREC:  cpu time    4.6478: real time    4.6910
    CHARGE:  cpu time    0.1758: real time    0.1782
    --------------------------------------------
      LOOP:  cpu time   10.2307: real time   10.3273

 eigenvalue-minimisations  :     0
 total energy-change (2. order) :-0.1995727E-04  (-0.1048370E-04)
 number of electron     216.0000000 magnetization 
 augmentation part       -0.4134533 magnetization 

 Free energy of the ion-electron system (eV)
  ---------------------------------------------------
  alpha Z        PSCENC =        47.94900195
  Ewald energy   TEWEN  =     41309.03722986
  -Hartree energ DENC   =    -48274.71581304
  -exchange      EXHF   =         0.00000000
  -V(xc)+E(xc)   XCENC  =       444.00095721
  PAW double counting   =    107008.41950280  -106714.93356523
  entropy T*S    EENTRO =        -0.00000000
  eigenvalues    EBANDS =     -2652.18933052
  atomic energy  EATOM  =      8415.03548706
  ---------------------------------------------------
  free energy    TOTEN  =      -417.39652990 eV

  energy without entropy =     -417.39652990  energy(sigma->0) =     -417.39652990


--------------------------------------------------------------------------------------------------------




--------------------------------------- Iteration      1(  21)  ---------------------------------------


    POTLOK:  cpu time    4.1793: real time    4.2157
    SETDIJ:  cpu time    0.0544: real time    0.0546
    TRIAL :  cpu time    1.1533: real time    1.1660
    CORREC:  cpu time    4.6068: real time    4.6499
    CHARGE:  cpu time    0.1749: real time    0.1768
    --------------------------------------------
      LOOP:  cpu time   10.2041: real time   10.3109

 eigenvalue-minimisations  :     0
 total energy-change (2. order) :-0.1027295E-04  (-0.5021879E-05)
 number of electron     216.0000000 magnetization 
 augmentation part       -0.4134266 magnetization 

 Free energy of the ion-electron system (eV)
  ---------------------------------------------------
  alpha Z        PSCENC =        47.94900195
  Ewald energy   TEWEN  =     41309.03722986
  -Hartree energ DENC   =    -48274.67255396
  -exchange      EXHF   =         0.00000000
  -V(xc)+E(xc)   XCENC  =       443.99914817
  PAW double counting   =    107013.36337189  -106719.87735442
  entropy T*S    EENTRO =        -0.00000000
  eigenvalues    EBANDS =     -2652.23087074
  atomic energy  EATOM  =      8415.03548706
  ---------------------------------------------------
  free energy    TOTEN  =      -417.39654018 eV

  energy without entropy =     -417.39654018  energy(sigma->0) =     -417.39654018


--------------------------------------------------------------------------------------------------------




--------------------------------------- Iteration      1(  22)  ---------------------------------------


    POTLOK:  cpu time    4.1300: real time    4.1655
    SETDIJ:  cpu time    0.0545: real time    0.0547
    TRIAL :  cpu time    1.1506: real time    1.1638
    CORREC:  cpu time    4.6091: real time    4.6508
    CHARGE:  cpu time    0.1750: real time    0.1775
    --------------------------------------------
      LOOP:  cpu time   10.1563: real time   10.2620

 eigenvalue-minimisations  :     0
 total energy-change (2. order) :-0.4995527E-05  (-0.2084920E-05)
 number of electron     216.0000000 magnetization 
 augmentation part       -0.4134146 magnetization 

 Free energy of the ion-electron system (eV)
  ---------------------------------------------------
  alpha Z        PSCENC =        47.94900195
  Ewald energy   TEWEN  =     41309.03722986
  -Hartree energ DENC   =    -48274.67049666
  -exchange      EXHF   =         0.00000000
  -V(xc)+E(xc)   XCENC  =       443.99946476
  PAW double counting   =    107012.22271948  -106718.73695649
  entropy T*S    EENTRO =        -0.00000000
  eigenvalues    EBANDS =     -2652.23299513
  atomic energy  EATOM  =      8415.03548706
  ---------------------------------------------------
  free energy    TOTEN  =      -417.39654517 eV

  energy without entropy =     -417.39654517  energy(sigma->0) =     -417.39654517


--------------------------------------------------------------------------------------------------------




--------------------------------------- Iteration      1(  23)  ---------------------------------------


    POTLOK:  cpu time    4.1925: real time    4.2292
    SETDIJ:  cpu time    0.0543: real time    0.0546
    TRIAL :  cpu time    1.1509: real time    1.1640
    CORREC:  cpu time    4.6247: real time    4.6683
    CHARGE:  cpu time    0.1755: real time    0.1778
    --------------------------------------------
      LOOP:  cpu time   10.2421: real time   10.3528

 eigenvalue-minimisations  :     0
 total energy-change (2. order) :-0.2112283E-05  (-0.8120503E-06)
 number of electron     216.0000000 magnetization 
 augmentation part       -0.4134038 magnetization 

 Free energy of the ion-electron system (eV)
  ---------------------------------------------------
  alpha Z        PSCENC =        47.94900195
  Ewald energy   TEWEN  =     41309.03722986
  -Hartree energ DENC   =    -48274.65510787
  -exchange      EXHF   =         0.00000000
  -V(xc)+E(xc)   XCENC  =       443.99896196
  PAW double counting   =    107010.90488405  -106717.41909359
  entropy T*S    EENTRO =        -0.00000000
  eigenvalues    EBANDS =     -2652.24791071
  atomic energy  EATOM  =      8415.03548706
  ---------------------------------------------------
  free energy    TOTEN  =      -417.39654728 eV

  energy without entropy =     -417.39654728  energy(sigma->0) =     -417.39654728


--------------------------------------------------------------------------------------------------------




--------------------------------------- Iteration      1(  24)  ---------------------------------------


    POTLOK:  cpu time    4.1314: real time    4.1686
    SETDIJ:  cpu time    0.0544: real time    0.0546
    TRIAL :  cpu time    1.1526: real time    1.1657
    CORREC:  cpu time    4.6218: real time    4.6636
    CHARGE:  cpu time    0.1757: real time    0.1778
    --------------------------------------------
      LOOP:  cpu time   10.1602: real time   10.2784

 eigenvalue-minimisations  :     0
 total energy-change (2. order) :-0.8288189E-06  (-0.3576042E-06)
 number of electron     216.0000000 magnetization 
 augmentation part       -0.4134007 magnetization 

 Free energy of the ion-electron system (eV)
  ---------------------------------------------------
  alpha Z        PSCENC =        47.94900195
  Ewald energy   TEWEN  =     41309.03722986
  -Hartree energ DENC   =    -48274.65614563
  -exchange      EXHF   =         0.00000000
  -V(xc)+E(xc)   XCENC  =       443.99923407
  PAW double counting   =    107010.64778660  -106717.16202132
  entropy T*S    EENTRO =        -0.00000000
  eigenvalues    EBANDS =     -2652.24712071
  atomic energy  EATOM  =      8415.03548706
  ---------------------------------------------------
  free energy    TOTEN  =      -417.39654811 eV

  energy without entropy =     -417.39654811  energy(sigma->0) =     -417.39654811


--------------------------------------------------------------------------------------------------------




--------------------------------------- Iteration      1(  25)  ---------------------------------------


    POTLOK:  cpu time    4.1517: real time    4.1860
    SETDIJ:  cpu time    0.0545: real time    0.0547
    TRIAL :  cpu time    1.1518: real time    1.1634
    CORREC:  cpu time    4.6628: real time    4.6988
    CHARGE:  cpu time    0.1752: real time    0.1770
    --------------------------------------------
      LOOP:  cpu time   10.2055: real time   10.3096

 eigenvalue-minimisations  :     0
 total energy-change (2. order) :-0.3700698E-06  (-0.1720004E-06)
 number of electron     216.0000000 magnetization 
 augmentation part       -0.4133981 magnetization 

 Free energy of the ion-electron system (eV)
  ---------------------------------------------------
  alpha Z        PSCENC =        47.94900195
  Ewald energy   TEWEN  =     41309.03722986
  -Hartree energ DENC   =    -48274.65618636
  -exchange      EXHF   =         0.00000000
  -V(xc)+E(xc)   XCENC  =       443.99924467
  PAW double counting   =    107010.59304276  -106717.10724738
  entropy T*S    EENTRO =        -0.00000000
  eigenvalues    EBANDS =     -2652.24712104
  atomic energy  EATOM  =      8415.03548706
  ---------------------------------------------------
  free energy    TOTEN  =      -417.39654848 eV

  energy without entropy =     -417.39654848  energy(sigma->0) =     -417.39654848


--------------------------------------------------------------------------------------------------------




--------------------------------------- Iteration      1(  26)  ---------------------------------------


    POTLOK:  cpu time    4.1620: real time    4.1915
    SETDIJ:  cpu time    0.0545: real time    0.0547
    TRIAL :  cpu time    1.1541: real time    1.1643
    CORREC:  cpu time    4.6772: real time    4.7189
    CHARGE:  cpu time    0.1755: real time    0.1773
    --------------------------------------------
      LOOP:  cpu time   10.2735: real time   10.3604

 eigenvalue-minimisations  :     0
 total energy-change (2. order) :-0.1786830E-06  (-0.9299602E-07)
 number of electron     216.0000000 magnetization 
 augmentation part       -0.4133942 magnetization 

 Free energy of the ion-electron system (eV)
  ---------------------------------------------------
  alpha Z        PSCENC =        47.94900195
  Ewald energy   TEWEN  =     41309.03722986
  -Hartree energ DENC   =    -48274.65720744
  -exchange      EXHF   =         0.00000000
  -V(xc)+E(xc)   XCENC  =       443.99922597
  PAW double counting   =    107010.42585898  -106716.94004835
  entropy T*S    EENTRO =        -0.00000000
  eigenvalues    EBANDS =     -2652.24609669
  atomic energy  EATOM  =      8415.03548706
  ---------------------------------------------------
  free energy    TOTEN  =      -417.39654866 eV

  energy without entropy =     -417.39654866  energy(sigma->0) =     -417.39654866


--------------------------------------------------------------------------------------------------------




--------------------------------------- Iteration      1(  27)  ---------------------------------------


    POTLOK:  cpu time    4.1450: real time    4.1771
    SETDIJ:  cpu time    0.0544: real time    0.0546
    TRIAL :  cpu time    1.1519: real time    1.1627
    CORREC:  cpu time    4.6148: real time    4.6506
    EDDIAG:  cpu time    0.4341: real time    0.4393
    CHARGE:  cpu time    0.1751: real time    0.1770
    --------------------------------------------
      LOOP:  cpu time   10.6736: real time   10.7627

 eigenvalue-minimisations  :     0
 total energy-change (2. order) :-0.9589712E-07  (-0.4688456E-07)
 number of electron     216.0000000 magnetization 
 augmentation part       -0.4133936 magnetization 

 Free energy of the ion-electron system (eV)
  ---------------------------------------------------
  alpha Z        PSCENC =        47.94900195
  Ewald energy   TEWEN  =     41309.03722986
  -Hartree energ DENC   =    -48274.66028512
  -exchange      EXHF   =         0.00000000
  -V(xc)+E(xc)   XCENC  =       443.99932181
  PAW double counting   =    107010.32145923  -106716.83566885
  entropy T*S    EENTRO =        -0.00000000
  eigenvalues    EBANDS =     -2652.24309470
  atomic energy  EATOM  =      8415.03548706
  ---------------------------------------------------
  free energy    TOTEN  =      -417.39654876 eV

  energy without entropy =     -417.39654876  energy(sigma->0) =     -417.39654876


--------------------------------------------------------------------------------------------------------


  average scaling for gradient   0.8938


 average (electrostatic) potential at core
  the test charge radii are     0.5770  0.5955
  (the norm of the test charge is              1.0000)
       1 -86.0245       2 -86.0240       3 -86.0244       4 -86.0250       5 -86.0235
       6 -86.0235       7 -86.0244       8 -86.0234       9 -86.0238      10 -86.0239
[...]
      21 -86.0233      22 -86.0233      23 -86.0253      24 -86.0252      25 -86.0234
      26 -86.0235      27 -86.0238      28 -86.0246      29 -86.0233      30 -86.0234
      31 -86.0247      32 -86.0242      33 -86.0236      34 -86.0236      35 -86.0236
      36 -86.0236      37 -86.0241      38 -86.0243      39 -86.0241      40 -86.0241
      41 -86.0241      42 -86.0242      43 -86.0240      44 -86.0244      45 -86.0235
      46 -86.0235      47 -86.0235      48 -86.0235      49 -86.0242      50 -86.0240
      51 -89.9143      52-120.4318      53-120.4311
 
 
 
 E-fermi :  -4.3692     XC(G=0):  -2.2880     alpha+bet : -1.6890

 Fermi energy:        -4.3692492070

 k-point     1 :       0.0000    0.0000    0.0000
  band No.  band energies     occupation 
      1     -27.6443      2.00000
      2     -26.6506      2.00000
      3     -22.4386      2.00000
      4     -21.5021      2.00000
      5     -21.5007      2.00000
      6     -21.5006      2.00000
      7     -21.5003      2.00000
      8     -21.5002      2.00000
      9     -21.4996      2.00000
     10     -19.6628      2.00000
     11     -19.6627      2.00000
     12     -19.6625      2.00000
     13     -19.6618      2.00000
     14     -19.6613      2.00000
     15     -19.6611      2.00000
     16     -18.7677      2.00000
     17     -18.7675      2.00000
     18     -18.7671      2.00000
     19     -18.7669      2.00000
     20     -18.7661      2.00000
     21     -18.7659      2.00000
     22     -16.6068      2.00000
     23     -16.6064      2.00000
     24     -16.6058      2.00000
     25     -16.6056      2.00000
     26     -16.6051      2.00000
     27     -16.6049      2.00000
     28     -15.6280      2.00000
     29     -15.6280      2.00000
     30     -15.6270      2.00000
     31     -15.6268      2.00000
     32     -15.6265      2.00000
     33     -15.6264      2.00000
     34     -14.2791      2.00000
     35     -14.2789      2.00000
     36     -14.2783      2.00000
     37     -14.2782      2.00000
     38     -14.2781      2.00000
     39     -14.2778      2.00000
     40     -12.4874      2.00000
     41     -11.9030      2.00000
     42     -11.9028      2.00000
     43     -11.9023      2.00000
     44     -11.9022      2.00000
     45     -11.9011      2.00000
     46     -11.9009      2.00000
     47     -11.8102      2.00000
     48     -11.8100      2.00000
     49     -11.8093      2.00000
     50     -11.8093      2.00000
     51     -11.8092      2.00000
     52     -11.8090      2.00000
     53     -11.3296      2.00000
     54     -11.2669      2.00000
     55     -11.2667      2.00000
     56     -10.5957      2.00000
     57     -10.4401      2.00000
     58     -10.4399      2.00000
     59     -10.4384      2.00000
     60     -10.4380      2.00000
     61     -10.4378      2.00000
     62     -10.4377      2.00000
     63      -9.4794      2.00000
     64      -9.4783      2.00000
     65      -9.4781      2.00000
     66      -9.4779      2.00000
     67      -9.4778      2.00000
     68      -9.4775      2.00000
     69      -9.1761      2.00000
     70      -9.1749      2.00000
     71      -9.1745      2.00000
     72      -9.1745      2.00000
     73      -9.1742      2.00000
     74      -9.1739      2.00000
     75      -9.1165      2.00000
     76      -9.1163      2.00000
     77      -9.1155      2.00000
     78      -9.1154      2.00000
     79      -9.1152      2.00000
     80      -9.1144      2.00000
     81      -7.7299      2.00000
     82      -7.7298      2.00000
     83      -7.5266      2.00000
     84      -7.5249      2.00000
     85      -7.5248      2.00000
     86      -7.5244      2.00000
     87      -7.5236      2.00000
     88      -7.5235      2.00000
     89      -7.3485      2.00000
     90      -7.3483      2.00000
     91      -7.3481      2.00000
     92      -7.3477      2.00000
     93      -7.3473      2.00000
     94      -7.3471      2.00000
     95      -6.4511      2.00000
     96      -6.4510      2.00000
     97      -6.4507      2.00000
     98      -6.4506      2.00000
     99      -6.4500      2.00000
    100      -6.4498      2.00000
    101      -6.0469      2.00000
    102      -6.0447      2.00000
    103      -4.4669      2.00000
    104      -4.4665      2.00000
    105      -4.4660      2.00000
    106      -4.4659      2.00000
    107      -4.4654      2.00000
    108      -4.4654      2.00000
    109      -1.6664      0.00000
    110      -1.6662      0.00000
    111      -1.6659      0.00000
    112      -1.6658      0.00000
    113      -1.6651      0.00000
    114      -1.6648      0.00000
    115      -0.1529      0.00000
    116       0.1500      0.00000
    117       0.1949      0.00000
    118       0.1950      0.00000
    119       0.1955      0.00000
    120       0.1956      0.00000
    121       0.1965      0.00000
    122       0.1968      0.00000
    123       0.6737      0.00000
    124       1.0162      0.00000
    125       1.1244      0.00000
    126       1.1351      0.00000
    127       1.1426      0.00000
    128       1.1518      0.00000
    129       1.1551      0.00000
    130       1.1587      0.00000
    131       1.3301      0.00000
    132       1.7605      0.00000
    133       1.7875      0.00000
    134       1.8331      0.00000
    135       1.8915      0.00000
    136       1.9322      0.00000


--------------------------------------------------------------------------------------------------------


 soft charge-density along one line, spin component           1
         0         1         2         3         4         5         6         7         8         9
 total charge-density along one line
 
 pseudopotential strength for first ion, spin component:           1
 12.721  21.408   0.000   0.000   0.000   0.000   0.000   0.000
 21.408  36.024   0.000   0.000   0.000   0.000   0.000   0.000
  0.000   0.000  -3.196  -0.000   0.000  -5.729  -0.000   0.000
  0.000   0.000  -0.000  -3.199  -0.000  -0.000  -5.733  -0.000
  0.000   0.000   0.000  -0.000  -3.196   0.000  -0.000  -5.729
  0.000   0.000  -5.729  -0.000   0.000 -10.246  -0.000   0.000
  0.000   0.000  -0.000  -5.733  -0.000  -0.000 -10.253  -0.000
  0.000   0.000   0.000  -0.000  -5.729   0.000  -0.000 -10.246
 total augmentation occupancy for first ion, spin component:           1
  7.653  -2.660  -0.000  -0.002  -0.000   0.000   0.001   0.000
 -2.660   0.962   0.000   0.001   0.000  -0.000  -0.000  -0.000
 -0.000   0.000   7.069  -0.008   0.000  -2.370   0.003  -0.000
 -0.002   0.001  -0.008   3.114  -0.000   0.003  -0.813   0.000
 -0.000   0.000   0.000  -0.000   7.068  -0.000   0.000  -2.370
  0.000  -0.000  -2.370   0.003  -0.000   0.809  -0.001   0.000
  0.001  -0.000   0.003  -0.813   0.000  -0.001   0.219  -0.000
  0.000  -0.000  -0.000   0.000  -2.370   0.000  -0.000   0.809


------------------------ aborting loop because EDIFF is reached ----------------------------------------


    FORLOC:  cpu time    0.0673: real time    0.0679
    FORNL :  cpu time    0.8463: real time    0.8512
    FORCOR:  cpu time    4.2244: real time    4.2543
    OFIELD:  cpu time    0.0019: real time    0.0019

 VOLUME and BASIS-vectors are now :
 -----------------------------------------------------------------------------
  energy-cutoff  :     1000.00
  volume of cell :     3288.85
      direct lattice vectors                 reciprocal lattice vectors
    12.325000000  0.000000000  0.000000000     0.081135903  0.046843835  0.000000000
    -6.162500000 10.673763102  0.000000000     0.000000000  0.093687670  0.000000000
     0.000000000  0.000000000 25.000000000     0.000000000  0.000000000  0.040000000

  length of vectors
    12.325000000 12.325000000 25.000000000     0.093687670  0.093687670  0.040000000


 FORCES acting on ions:
    Electron-Ion                     Ewald-Force                    Non-Local-Force
 -----------------------------------------------------------------------------------------------
   0.629E+00 0.561E+00 0.136E+02   -.629E+00 -.562E+00 -.136E+02   0.428E-02 -.644E-03 0.594E-02
   0.861E+00 0.485E+00 0.146E+02   -.864E+00 -.482E+00 -.146E+02   0.267E-02 -.297E-02 -.560E-02
   0.343E+00 0.940E+00 0.146E+02   -.344E+00 -.940E+00 -.146E+02   -.770E-04 0.113E-01 -.150E-02
   0.429E+00 0.632E+00 0.168E+02   -.427E+00 -.631E+00 -.168E+02   0.114E-01 0.674E-03 -.160E-01
   0.711E+00 0.191E+00 0.141E+02   -.710E+00 -.191E+00 -.141E+02   -.829E-03 -.515E-02 0.387E-02
   0.726E+00 -.164E+00 0.143E+02   -.729E+00 0.165E+00 -.143E+02   -.645E-02 0.353E-02 -.198E-02
   0.817E+00 0.376E+00 0.169E+02   -.818E+00 -.377E+00 -.169E+02   0.114E-01 -.188E-01 -.697E-02
   0.846E+00 -.258E+00 0.181E+02   -.851E+00 0.261E+00 -.181E+02   -.753E-02 -.502E-02 -.618E-02
   -.405E+00 0.933E+00 0.150E+02   0.408E+00 -.936E+00 -.150E+02   0.386E-03 -.133E-01 -.484E-02
   -.505E+00 0.450E+00 0.171E+02   0.506E+00 -.451E+00 -.171E+02   -.253E-01 0.144E-01 0.143E-02
   0.189E+00 -.192E+00 0.134E+02   -.186E+00 0.192E+00 -.134E+02   0.391E-02 -.275E-02 0.831E-03
   0.191E+00 -.156E+00 0.132E+02   -.192E+00 0.157E+00 -.132E+02   -.642E-02 0.325E-02 0.663E-02
   0.219E+00 -.652E+00 0.189E+02   -.219E+00 0.654E+00 -.189E+02   0.260E-01 -.722E-02 -.338E-02
   0.143E+00 -.102E+01 0.162E+02   -.147E+00 0.103E+01 -.162E+02   0.327E-02 0.708E-02 -.159E-01
   -.672E+00 0.401E+00 0.137E+02   0.674E+00 -.402E+00 -.137E+02   0.747E-02 -.406E-02 0.814E-02
   -.839E+00 0.223E+00 0.139E+02   0.839E+00 -.223E+00 -.139E+02   -.133E-02 0.496E-02 -.408E-02
   -.117E+00 -.507E-01 0.128E+02   0.120E+00 0.490E-01 -.128E+02   0.206E-03 0.187E-03 0.228E-02
   0.575E-01 0.411E+00 0.129E+02   -.572E-01 -.412E+00 -.129E+02   -.262E-02 0.134E-02 0.928E-02
   -.181E+00 -.968E+00 0.148E+02   0.181E+00 0.969E+00 -.148E+02   0.566E-02 -.137E-02 0.185E-03
   -.109E+00 -.602E+00 0.136E+02   0.106E+00 0.603E+00 -.136E+02   -.389E-03 -.690E-03 -.462E-03
   0.920E+00 -.384E+00 0.156E+02   -.920E+00 0.385E+00 -.156E+02   -.206E-02 -.195E-02 -.157E-01
   0.667E+00 -.531E+00 0.147E+02   -.670E+00 0.533E+00 -.147E+02   -.693E-02 0.542E-02 -.118E-02
   -.150E+00 0.255E+00 0.187E+02   0.146E+00 -.253E+00 -.187E+02   -.100E-01 0.103E-01 -.108E-02
   -.228E+00 -.404E+00 0.187E+02   0.230E+00 0.402E+00 -.187E+02   0.119E-01 -.145E-01 -.123E-01
   0.359E+00 -.131E+00 0.135E+02   -.357E+00 0.129E+00 -.135E+02   0.377E-02 -.268E-02 -.226E-02
   0.112E+00 0.302E+00 0.133E+02   -.113E+00 -.301E+00 -.133E+02   -.477E-02 0.317E-02 0.632E-02
   -.997E+00 0.791E-01 0.154E+02   0.100E+01 -.811E-01 -.155E+02   0.124E-01 0.750E-02 -.241E-02
   -.909E+00 -.387E+00 0.149E+02   0.910E+00 0.386E+00 -.149E+02   -.808E-02 0.886E-02 0.373E-03
   0.353E+00 -.754E+00 0.149E+02   -.352E+00 0.754E+00 -.148E+02   0.397E-02 0.244E-02 -.590E-02
   0.362E-01 -.331E+00 0.137E+02   -.383E-01 0.333E+00 -.137E+02   -.494E-02 0.240E-02 -.132E-02
   -.650E+00 -.638E+00 0.159E+02   0.648E+00 0.639E+00 -.158E+02   -.115E-01 -.784E-02 -.137E-01
   -.484E+00 -.927E+00 0.146E+02   0.486E+00 0.926E+00 -.146E+02   0.603E-03 -.685E-03 0.148E-02
   0.331E-01 0.212E+00 0.131E+02   -.328E-01 -.212E+00 -.131E+02   0.467E-02 -.452E-02 0.763E-02
   0.117E+00 0.179E+00 0.132E+02   -.119E+00 -.178E+00 -.132E+02   -.244E-02 0.467E-02 -.339E-03
   -.444E+00 0.855E-01 0.134E+02   0.447E+00 -.865E-01 -.134E+02   0.421E-02 -.249E-02 0.674E-02
   -.389E+00 -.187E+00 0.133E+02   0.388E+00 0.187E+00 -.133E+02   -.356E-02 0.217E-02 0.440E-02
   -.728E+00 -.406E+00 0.135E+02   0.731E+00 0.404E+00 -.135E+02   -.360E-03 0.860E-03 0.349E-02
   -.488E+00 -.396E+00 0.131E+02   0.489E+00 0.396E+00 -.131E+02   -.348E-02 0.121E-02 0.890E-02
   -.451E+00 -.564E+00 0.133E+02   0.450E+00 0.566E+00 -.133E+02   -.264E-02 0.334E-03 0.444E-02
   -.657E-01 -.164E+00 0.130E+02   0.667E-01 0.163E+00 -.130E+02   0.176E-02 0.710E-03 0.710E-02
   0.174E+00 0.427E+00 0.129E+02   -.175E+00 -.427E+00 -.129E+02   -.382E-02 0.145E-02 0.665E-02
   0.519E+00 0.771E+00 0.135E+02   -.518E+00 -.772E+00 -.136E+02   -.932E-03 -.106E-02 0.716E-02
   0.650E-01 0.697E+00 0.131E+02   -.621E-01 -.698E+00 -.131E+02   0.224E-03 0.320E-03 0.255E-02
   0.820E-02 0.996E+00 0.142E+02   -.769E-02 -.998E+00 -.142E+02   -.757E-02 0.136E-02 0.501E-02
   -.138E+00 0.250E+00 0.135E+02   0.140E+00 -.252E+00 -.135E+02   0.420E-02 -.311E-02 0.239E-02
   -.474E+00 0.618E+00 0.139E+02   0.474E+00 -.618E+00 -.139E+02   -.568E-02 -.510E-04 -.523E-03
   -.152E+00 -.314E+00 0.135E+02   0.153E+00 0.313E+00 -.135E+02   0.578E-02 -.115E-02 0.652E-02
   -.284E+00 0.961E-01 0.131E+02   0.283E+00 -.954E-01 -.131E+02   -.378E-02 0.327E-02 -.215E-02
   0.208E-01 -.187E+00 0.131E+02   -.209E-01 0.187E+00 -.131E+02   0.393E-02 -.296E-02 0.571E-02
   0.302E+00 0.218E+00 0.130E+02   -.304E+00 -.217E+00 -.130E+02   -.700E-03 0.181E-02 0.340E-02
   -.289E-02 0.278E-01 -.179E+03   -.143E-02 -.241E-01 0.180E+03   -.283E-02 0.192E-02 -.226E-02
   -.229E+03 0.156E+03 -.282E+03   0.279E+03 -.190E+03 0.285E+03   -.512E+02 0.348E+02 -.343E+01
   0.229E+03 -.156E+03 -.260E+03   -.279E+03 0.190E+03 0.257E+03   0.512E+02 -.348E+02 0.309E+01
 -----------------------------------------------------------------------------------------------
   -.753E-02 0.139E-01 0.344E+00   0.114E-12 -.114E-12 -.114E-12   0.742E-02 -.139E-01 -.345E+00
 
 
 POSITION                                       TOTAL-FORCE (eV/Angst)
 -----------------------------------------------------------------------------------
     11.98348      0.00342      0.01417         0.003263     -0.001682     -0.000984
     -0.34154      1.42665      0.01100        -0.000592     -0.000061     -0.003313
      2.12355      0.00315      0.01249        -0.001762      0.010934     -0.006269
      2.12326      1.42653      0.00641         0.013544      0.001288     -0.008315
     10.75099      2.13819      0.01213         0.000431     -0.005762     -0.000110
     -1.57382      3.56123      0.01110        -0.008999      0.004739     -0.001383
      0.89078      2.13854      0.00548         0.009735     -0.019222      0.002294
      0.89099      3.56147      0.00181        -0.011799     -0.002510      0.011443
      4.58864      0.00346      0.01135         0.003607     -0.015803     -0.003476
      4.58894      1.42623      0.00646        -0.023824      0.013439      0.013531
      9.51854      4.27281      0.01369         0.006592     -0.003102      0.000219
     -2.80632      5.69591      0.01434        -0.006604      0.003421      0.000707
      2.12300      4.27302      0.00000         0.025313     -0.005147      0.019949
      2.12335      5.69594      0.00581        -0.000493      0.009096     -0.002610
      7.05344      0.00333      0.01399         0.009388     -0.005300     -0.000410
      7.05353      1.42635      0.01368        -0.001780      0.005017     -0.003625
      8.28610      6.40752      0.01601         0.002907     -0.001459     -0.000745
     -4.03885      7.83070      0.01636        -0.002252      0.000878     -0.000114
      3.35586      6.40753      0.01007         0.005594      0.000477     -0.001254
      3.35599      7.83072      0.01320        -0.003154      0.000006     -0.000626
     -0.34146      4.27290      0.00723        -0.001771     -0.001524     -0.004399
     -0.34138      5.69591      0.00946        -0.009195      0.006542     -0.001091
      3.35624      2.13791      0.00222        -0.013730      0.012071      0.015472
      3.35573      3.56155      0.00139         0.013714     -0.016093      0.008137
     -1.57395      6.40758      0.01311         0.005382     -0.003948     -0.000535
     -1.57385      7.83068      0.01438        -0.004893      0.003788      0.000011
      5.82093      2.13784      0.01033         0.016012      0.005208     -0.002970
      5.82114      3.56097      0.01156        -0.006498      0.008646     -0.003601
      0.89092      6.40755      0.00907         0.004656      0.002286     -0.002204
      0.89106      7.83068      0.01235        -0.006834      0.003907      0.000399
      4.58871      4.27293      0.00850        -0.013089     -0.006557     -0.010684
      4.58852      5.69606      0.01149         0.001998     -0.001241     -0.003929
      9.51845      0.00337      0.01490         0.004803     -0.004722      0.000125
      9.51855      1.42644      0.01438        -0.005135      0.005458     -0.000249
      8.28593      2.13803      0.01453         0.006789     -0.003393      0.000599
      8.28613      3.56115      0.01464        -0.004411      0.002251     -0.000036
      7.05356      4.27269      0.01457         0.002587     -0.001103     -0.000579
      7.05362      5.69588      0.01553        -0.002532      0.001567     -0.000097
      5.82112      6.40755      0.01489        -0.002998      0.001593     -0.000017
      5.82102      7.83073      0.01579         0.002740      0.000240     -0.000307
      7.05363      8.54227      0.01631        -0.004682      0.001307      0.001085
     -5.27149      9.96549      0.01495         0.000186     -0.002007     -0.002130
     -2.80638      8.54234      0.01558         0.003123     -0.001334     -0.001124
     -2.80627      9.96553      0.01362        -0.006900     -0.000044     -0.003743
     -0.34149      8.54239      0.01378         0.005812     -0.004944      0.000254
     -0.34138      9.96550      0.01354        -0.005973     -0.000018     -0.001157
      2.12343      8.54232      0.01336         0.005936     -0.001560      0.000689
      2.12354      9.96544      0.01469        -0.005131      0.003830     -0.001776
      4.58846      8.54235      0.01505         0.003730     -0.002791      0.000994
      4.58853      9.96550      0.01517        -0.002728      0.003334      0.000155
      3.04930      2.68154      8.40896        -0.007022      0.005607      0.032908
      4.02070      2.02068      8.47339        -0.557290      0.378791     -0.053198
      2.07767      3.34267      8.34951         0.564230     -0.384393      0.018088
 -----------------------------------------------------------------------------------
    total drift:                               -0.000110     -0.000029     -0.001261


--------------------------------------------------------------------------------------------------------



  FREE ENERGIE OF THE ION-ELECTRON SYSTEM (eV)
  ---------------------------------------------------
  free  energy   TOTEN  =      -417.39654876 eV

  energy  without entropy=     -417.39654876  energy(sigma->0) =     -417.39654876
 


--------------------------------------------------------------------------------------------------------


    POTLOK:  cpu time    4.1878: real time    4.2171


--------------------------------------------------------------------------------------------------------


 writing wavefunctions
     LOOP+:  cpu time  280.9486: real time  283.8901
    4ORBIT:  cpu time    0.0000: real time    0.0000

 total amount of memory used by VASP MPI-rank0   100580. kBytes
=======================================================================

   base      :      30000. kBytes
   nonl-proj :       8229. kBytes
   fftplans  :      18352. kBytes
   grid      :      30208. kBytes
   one-center:          6. kBytes
   wavefun   :      13785. kBytes
 
  
  
 General timing and accounting informations for this job:
 ========================================================
  
                  Total CPU time used (sec):      326.567
                            User time (sec):      304.853
                          System time (sec):       21.714
                         Elapsed time (sec):      330.745
  
                   Maximum memory used (kb):      777244.
                   Average memory used (kb):          N/A
  
                          Minor page faults:       438424
                          Major page faults:           84
                 Voluntary context switches:         3511
