 vasp.6.2.1 16May21 (build Nov 06 2021 14:46:37) complex                        
  
 executed on             LinuxIFC date 2025.03.03  16:46:02
 running on  112 total cores
 distrk:  each k-point on  112 cores,    1 groups
 distr:  one band on NCORE=  28 cores,    4 groups


--------------------------------------------------------------------------------------------------------


 INCAR:
   ALGO = Conjugate
   NPAR = 4
   ISMEAR = 0
   SIGMA = 0.01
   PREC = Accurate
   EDIFF = 1E-7
   ENCUT = 1000
   ISIF = 0
   GGA = MK
   PARAM1 = 0.1234
   PARAM2 = 1.0000
   LUSE_VDW = .TRUE.
   AGGAC = 0.0000
   LASPH = .TRUE.
   SYMPREC = 1E-7

 POTCAR:    PAW_PBE C_h 06Feb2004                 
 POTCAR:    PAW_PBE O_h 06Feb2004                 
 -----------------------------------------------------------------------------
|                                                                             |
|           W    W    AA    RRRRR   N    N  II  N    N   GGGG   !!!           |
|           W    W   A  A   R    R  NN   N  II  NN   N  G    G  !!!           |
|           W    W  A    A  R    R  N N  N  II  N N  N  G       !!!           |
|           W WW W  AAAAAA  RRRRR   N  N N  II  N  N N  G  GGG   !            |
|           WW  WW  A    A  R   R   N   NN  II  N   NN  G    G                |
|           W    W  A    A  R    R  N    N  II  N    N   GGGG   !!!           |
|                                                                             |
|     For optimal performance we recommend to set                             |
|       NCORE = 2 up to number-of-cores-per-socket                            |
|     NCORE specifies how many cores store one orbital (NPAR=cpu/NCORE).      |
|     This setting can greatly improve the performance of VASP for DFT.       |
|     The default, NCORE=1 might be grossly inefficient on modern             |
|     multi-core architectures or massively parallel machines. Do your        |
|     own testing! More info at https://www.vasp.at/wiki/index.php/NCORE      |
|     Unfortunately you need to use the default for GW and RPA                |
|     calculations (for HF NCORE is supported but not extensively tested      |
|     yet).                                                                   |
|                                                                             |
 -----------------------------------------------------------------------------

 -----------------------------------------------------------------------------
|                                                                             |
|               ----> ADVICE to this user running VASP <----                  |
|                                                                             |
|     You have switched on vdW-DFT.                                           |
|     This routine was written and supplied by Jiri Klimes. We recommend      |
|     that you carefully read and cite the following publications:            |
|       J. Klimes, D.R. Bowler, A. Michelides                                 |
|          J. Phys.: Cond Matt. 22 022201 (2010)                              |
|       J. Klimes, D.R. Bowler, A. Michelides                                 |
|          Phys. Rev. B. 83, 195131 (2011)                                    |
|     and references therein.                                                 |
|                                                                             |
 -----------------------------------------------------------------------------

 POTCAR:    PAW_PBE C_h 06Feb2004                 
   VRHFIN =C: s2p2                                                                                  
   LEXCH  = PE                                                                                      
   EATOM  =   147.1560 eV,   10.8157 Ry                                                             
                                                                                                    
   TITEL  = PAW_PBE C_h 06Feb2004                                                                   
   LULTRA =        F    use ultrasoft PP ?                                                          
   IUNSCR =        1    unscreen: 0-lin 1-nonlin 2-no                                               
   RPACOR =    0.800    partial core radius                                                         
   POMASS =   12.011; ZVAL   =    4.000    mass and valenz                                          
   RCORE  =    1.100    outmost cutoff radius                                                       
   RWIGS  =    1.630; RWIGS  =    0.863    wigner-seitz radius (au A)                               
   ENMAX  =  700.000; ENMIN  =  500.000 eV                                                          
   ICORE  =        2    local potential                                                             
   LCOR   =        T    correct aug charges                                                         
   LPAW   =        T    paw PP                                                                      
   EAUG   =  946.768                                                                                
   DEXC   =    0.000                                                                                
   RMAX   =    1.128    core radius for proj-oper                                                   
   RAUG   =    1.300    factor for augmentation sphere                                              
   RDEP   =    1.162    radius for radial grids                                                     
   RDEPT  =    1.088    core radius for aug-charge                                                  
                                                                                                    
   Atomic configuration                                                                             
    4 entries                                                                                       
     n  l   j            E        occ.                                                              
     1  0  0.50      -273.3789   2.0000                                                             
     2  0  0.50       -13.7508   2.0000                                                             
     2  1  0.50        -5.2854   2.0000                                                             
     3  2  1.50        -5.4423   0.0000                                                             
   Description                                                                                      
     l       E           TYP  RCUT    TYP  RCUT                                                     
     0    -13.7508458     23  1.100                                                                 
     0     -8.2022199     23  1.100                                                                 
     1     -5.2854383     23  1.100                                                                 
     1      1.1560700     23  1.100                                                                 
     2     -5.4423304      7  1.100                                                                 
  local pseudopotential read in
  partial core-charges read in
  partial kinetic energy density read in
  atomic valenz-charges read in
  non local Contribution for L=           0  read in
    real space projection operators read in
  non local Contribution for L=           0  read in
    real space projection operators read in
  non local Contribution for L=           1  read in
    real space projection operators read in
  non local Contribution for L=           1  read in
    real space projection operators read in
    PAW grid and wavefunctions read in
 
   number of l-projection  operators is LMAX  =           4
   number of lm-projection operators is LMMAX =           8
 
 POTCAR:    PAW_PBE O_h 06Feb2004                 
   VRHFIN =O: s2p4                                                                                  
   LEXCH  = PE                                                                                      
   EATOM  =   432.3788 eV,   31.7789 Ry                                                             
                                                                                                    
   TITEL  = PAW_PBE O_h 06Feb2004                                                                   
   LULTRA =        F    use ultrasoft PP ?                                                          
   IUNSCR =        1    unscreen: 0-lin 1-nonlin 2-no                                               
   RPACOR =    0.800    partial core radius                                                         
   POMASS =   16.000; ZVAL   =    6.000    mass and valenz                                          
   RCORE  =    1.100    outmost cutoff radius                                                       
   RWIGS  =    1.400; RWIGS  =    0.741    wigner-seitz radius (au A)                               
   ENMAX  =  700.000; ENMIN  =  500.000 eV                                                          
   ICORE  =        2    local potential                                                             
   LCOR   =        T    correct aug charges                                                         
   LPAW   =        T    paw PP                                                                      
   EAUG   =  888.804                                                                                
   DEXC   =    0.000                                                                                
   RMAX   =    1.128    core radius for proj-oper                                                   
   RAUG   =    1.300    factor for augmentation sphere                                              
   RDEP   =    1.125    radius for radial grids                                                     
   RDEPT  =    1.088    core radius for aug-charge                                                  
                                                                                                    
   Atomic configuration                                                                             
    4 entries                                                                                       
     n  l   j            E        occ.                                                              
     1  0  0.50      -514.6923   2.0000                                                             
     2  0  0.50       -23.9615   2.0000                                                             
     2  1  0.50        -9.0305   4.0000                                                             
     3  2  1.50        -9.5241   0.0000                                                             
   Description                                                                                      
     l       E           TYP  RCUT    TYP  RCUT                                                     
     0    -23.9615319     23  1.100                                                                 
     0    -25.3221145     23  1.100                                                                 
     1     -9.0304911     23  1.100                                                                 
     1     -5.4802209     23  1.100                                                                 
     2     -9.5240782      7  1.100                                                                 
  local pseudopotential read in
  partial core-charges read in
  partial kinetic energy density read in
  atomic valenz-charges read in
  non local Contribution for L=           0  read in
    real space projection operators read in
  non local Contribution for L=           0  read in
    real space projection operators read in
  non local Contribution for L=           1  read in
    real space projection operators read in
  non local Contribution for L=           1  read in
    real space projection operators read in
    PAW grid and wavefunctions read in
 
   number of l-projection  operators is LMAX  =           4
   number of lm-projection operators is LMMAX =           8
 
 -----------------------------------------------------------------------------
|                                                                             |
|               ----> ADVICE to this user running VASP <----                  |
|                                                                             |
|     You have a (more or less) 'large supercell' and for larger cells it     |
|     might be more efficient to use real-space projection operators.         |
|     Therefore, try LREAL= Auto in the INCAR file.                           |
|     Mind: For very accurate calculation, you might also keep the            |
|     reciprocal projection scheme (i.e. LREAL=.FALSE.).                      |
|                                                                             |
 -----------------------------------------------------------------------------

 -----------------------------------------------------------------------------
|                                                                             |
|               ----> ADVICE to this user running VASP <----                  |
|                                                                             |
|     You enforced a specific xc type in the INCAR file but a different       |
|     type was found in the POTCAR file.                                      |
|     I HOPE YOU KNOW WHAT YOU ARE DOING!                                     |
|                                                                             |
 -----------------------------------------------------------------------------

  PAW_PBE C_h 06Feb2004                 :
 energy of atom  1       EATOM= -147.1560
 kinetic energy error for atom=    0.0031 (will be added to EATOM!!)
  PAW_PBE O_h 06Feb2004                 :
 energy of atom  2       EATOM= -432.3788
 kinetic energy error for atom=    0.0171 (will be added to EATOM!!)
 
 
 POSCAR:  C  O
  positions in cartesian coordinates
  No initial velocities read in
 exchange correlation table for  LEXCH =       43
   RHO(1)=    0.500       N(1)  =     2000
   RHO(2)=  100.500       N(2)  =     4000
 


--------------------------------------------------------------------------------------------------------


 ion  position               nearest neighbor table
   1  0.972  0.000  0.001-  50 1.42   2 1.42  42 1.42
   2  0.039  0.134  0.001-   5 1.42   7 1.42   1 1.42
   3  0.172  0.000  0.001-  42 1.42  44 1.42   4 1.42
   4  0.239  0.134  0.000-   7 1.42   3 1.42  23 1.42
   5  0.972  0.200  0.001-   6 1.42   2 1.42  34 1.42
   6  0.039  0.334  0.001-   5 1.42  21 1.42  11 1.42
   7  0.172  0.200  0.000-   8 1.42   2 1.42   4 1.42
   8  0.239  0.334  0.000-  13 1.42   7 1.42  21 1.42
   9  0.372  0.000  0.001-  10 1.42  44 1.42  46 1.42
  10  0.439  0.134  0.000-  27 1.42   9 1.42  23 1.42
  11  0.972  0.400  0.001-  12 1.42  36 1.42   6 1.42
  12  0.039  0.534  0.001-  25 1.42  11 1.42  17 1.42
  13  0.372  0.400  0.000-   8 1.42  14 1.42  24 1.42
  14  0.439  0.534  0.000-  13 1.42  29 1.42  19 1.42
  15  0.572  0.000  0.001-  46 1.42  16 1.42  48 1.42
  16  0.639  0.134  0.001-  15 1.42  35 1.42  27 1.42
  17  0.972  0.600  0.001-  38 1.42  18 1.42  12 1.42
  18  0.039  0.734  0.001-  43 1.42  41 1.42  17 1.42
  19  0.572  0.600  0.001-  14 1.42  20 1.42  32 1.42
  20  0.639  0.734  0.001-  49 1.42  19 1.42  47 1.42
  21  0.172  0.400  0.000-  22 1.42   8 1.42   6 1.42
  22  0.239  0.534  0.000-  21 1.42  29 1.42  25 1.42
  23  0.372  0.200  0.000-  10 1.42   4 1.42  24 1.42
  24  0.439  0.334  0.000-  13 1.42  31 1.42  23 1.42
  25  0.172  0.600  0.001-  26 1.42  12 1.42  22 1.42
  26  0.239  0.734  0.001-  25 1.42  45 1.42  43 1.42
  27  0.572  0.200  0.001-  10 1.42  28 1.42  16 1.42
  28  0.639  0.334  0.001-  27 1.42  37 1.42  31 1.42
  29  0.372  0.600  0.000-  22 1.42  14 1.42  30 1.42
  30  0.439  0.734  0.001-  47 1.42  29 1.42  45 1.42
  31  0.572  0.400  0.000-  32 1.42  28 1.42  24 1.42
  32  0.639  0.534  0.001-  31 1.42  39 1.42  19 1.42
  33  0.772  0.000  0.001-  34 1.42  48 1.42  50 1.42
  34  0.839  0.134  0.001-  33 1.42   5 1.42  35 1.42
  35  0.772  0.200  0.001-  36 1.42  16 1.42  34 1.42
  36  0.839  0.334  0.001-  35 1.42  11 1.42  37 1.42
  37  0.772  0.400  0.001-  28 1.42  38 1.42  36 1.42
  38  0.839  0.534  0.001-  17 1.42  37 1.42  39 1.42
  39  0.772  0.600  0.001-  40 1.42  38 1.42  32 1.42
  40  0.839  0.734  0.001-  39 1.42  49 1.42  41 1.42
  41  0.972  0.800  0.001-  18 1.42  42 1.42  40 1.42
  42  0.039  0.934  0.001-   3 1.42  41 1.42   1 1.42
  43  0.172  0.800  0.001-  18 1.42  44 1.42  26 1.42
  44  0.239  0.934  0.001-   9 1.42  43 1.42   3 1.42
  45  0.372  0.800  0.001-  26 1.42  46 1.42  30 1.42
  46  0.439  0.934  0.001-  15 1.42  45 1.42   9 1.42
  47  0.572  0.800  0.001-  30 1.42  48 1.42  20 1.42
  48  0.639  0.934  0.001-  47 1.42  33 1.42  15 1.42
  49  0.772  0.800  0.001-  50 1.42  20 1.42  40 1.42
  50  0.839  0.934  0.001-  49 1.42   1 1.42  33 1.42
  51  0.373  0.251  0.315-  52 1.18  53 1.18
  52  0.421  0.189  0.318-  51 1.18
  53  0.325  0.313  0.312-  51 1.18
 
  LATTYP: Found a hexagonal cell.
 ALAT       =    12.3250000000
 C/A-ratio  =     1.6227180527
  
  Lattice vectors:
  
 A1 = (  12.3250000000,   0.0000000000,   0.0000000000)
 A2 = (  -6.1625000000,  10.6737631016,   0.0000000000)
 A3 = (   0.0000000000,   0.0000000000,  20.0000000000)


Analysis of symmetry for initial positions (statically):
=====================================================================
 Subroutine PRICEL returns:
 Original cell was already a primitive cell.
 

 Routine SETGRP: Setting up the symmetry group for a 
 hexagonal supercell.


 Subroutine GETGRP returns: Found  1 space group operations
 (whereof  1 operations were pure point group operations)
 out of a pool of 24 trial point group operations.


The static configuration has the point symmetry C_1 .


Analysis of symmetry for dynamics (positions and initial velocities):
=====================================================================
 Subroutine PRICEL returns:
 Original cell was already a primitive cell.
 

 Routine SETGRP: Setting up the symmetry group for a 
 hexagonal supercell.


 Subroutine GETGRP returns: Found  1 space group operations
 (whereof  1 operations were pure point group operations)
 out of a pool of 24 trial point group operations.


The dynamic configuration has the point symmetry C_1 .


 Subroutine INISYM returns: Found  1 space group operations
 (whereof  1 operations are pure point group operations),
 and found     1 'primitive' translations


----------------------------------------------------------------------------------------

                                     Primitive cell                                     

  volume of cell :    2631.0826

  direct lattice vectors                    reciprocal lattice vectors
    12.325000000  0.000000000  0.000000000     0.081135903  0.046843835  0.000000000
    -6.162500000 10.673763102  0.000000000     0.000000000  0.093687670  0.000000000
     0.000000000  0.000000000 20.000000000     0.000000000  0.000000000  0.050000000

  length of vectors
    12.325000000 12.325000000 20.000000000     0.093687670  0.093687670  0.050000000

  position of ions in fractional coordinates (direct lattice)
     0.972450841  0.000320818  0.000708389
     0.039118382  0.133659505  0.000550216
     0.172443627  0.000295449  0.000624535
     0.239096278  0.133647917  0.000320585
     0.972452058  0.200322012  0.000606523
     0.039128360  0.333643771  0.000555187
     0.172451764  0.200354552  0.000273959
     0.239124359  0.333665720  0.000090325
     0.372465565  0.000324403  0.000567391
     0.439137473  0.133619939  0.000322923
     0.972449824  0.400309362  0.000684513
     0.039124981  0.533636789  0.000716763
     0.372416176  0.400329481  0.000000000
     0.439099602  0.533638981  0.000290518
     0.572443676  0.000312125  0.000699475
     0.639110207  0.133631751  0.000684093
     0.972452703  0.600305653  0.000800361
     0.039124495  0.733640359  0.000818141
     0.572433471  0.600306242  0.000503618
     0.639111888  0.733641879  0.000659881
     0.172454630  0.400318228  0.000361306
     0.239120185  0.533636548  0.000473136
     0.372459750  0.200295993  0.000111246
     0.439107096  0.333673419  0.000069702
     0.172452155  0.600311506  0.000655425
     0.239123371  0.733638574  0.000718912
     0.572431082  0.200289171  0.000516621
     0.639112773  0.333618630  0.000577970
     0.372439808  0.600308022  0.000453556
     0.439116090  0.733637858  0.000617737
     0.572469358  0.400320504  0.000424897
     0.639119408  0.533650873  0.000574513
     0.772445723  0.000315427  0.000745201
     0.839116277  0.133640203  0.000719132
     0.772440513  0.200307432  0.000726291
     0.839120241  0.333635728  0.000731834
     0.772446320  0.400298367  0.000728722
     0.839118980  0.533633964  0.000776376
     0.772456143  0.600308173  0.000744639
     0.839115033  0.733643180  0.000789390
     0.972455313  0.800305582  0.000815291
     0.039114714  0.933643289  0.000747563
     0.172457971  0.800312211  0.000779216
     0.239134551  0.933647193  0.000681063
     0.372451396  0.800316674  0.000689249
     0.439124489  0.933644769  0.000676788
     0.572441101  0.800310054  0.000668168
     0.639115067  0.933638985  0.000734556
     0.772445098  0.800313187  0.000752577
     0.839116614  0.933644338  0.000758538
     0.373021009  0.251226878  0.314980263
     0.420879805  0.189313152  0.318201356
     0.325156981  0.313167186  0.312007519

  ion indices of the primitive-cell ions
   primitive index   ion index
                 1           1
                 2           2
                 3           3
                 4           4
                 5           5
                 6           6
                 7           7
                 8           8
                 9           9
                10          10
                11          11
                12          12
                13          13
                14          14
                15          15
                16          16
                17          17
                18          18
                19          19
                20          20
                21          21
                22          22
                23          23
                24          24
                25          25
                26          26
                27          27
                28          28
                29          29
                30          30
                31          31
                32          32
                33          33
                34          34
                35          35
                36          36
                37          37
                38          38
                39          39
                40          40
                41          41
                42          42
                43          43
                44          44
                45          45
                46          46
                47          47
                48          48
                49          49
                50          50
                51          51
                52          52
                53          53

----------------------------------------------------------------------------------------

 
 
 KPOINTS: auto                                    

Automatic generation of k-mesh.
 Grid dimensions read from file:
 generate k-points for:    1    1    1

 Generating k-lattice:

  Cartesian coordinates                     Fractional coordinates (reciprocal lattice)
     0.081135903  0.046843835  0.000000000     1.000000000 -0.000000000  0.000000000
     0.000000000  0.093687670  0.000000000     0.000000000  1.000000000  0.000000000
     0.000000000  0.000000000  0.050000000     0.000000000  0.000000000  1.000000000

  Length of vectors
     0.093687670  0.093687670  0.050000000

  Shift w.r.t. Gamma in fractional coordinates (k-lattice)
     0.000000000  0.000000000  0.000000000

 
 Subroutine IBZKPT returns following result:
 ===========================================
 
 Found      1 irreducible k-points:
 
 Following reciprocal coordinates:
            Coordinates               Weight
  0.000000  0.000000  0.000000      1.000000
 
 Following cartesian coordinates:
            Coordinates               Weight
  0.000000  0.000000  0.000000      1.000000
 


--------------------------------------------------------------------------------------------------------




 Dimension of arrays:
   k-points           NKPTS =      1   k-points in BZ     NKDIM =      1   number of bands    NBANDS=    136
   number of dos      NEDOS =    301   number of ions     NIONS =     53
   non local maximal  LDIM  =      4   non local SUM 2l+1 LMDIM =      8
   total plane-waves  NPLWV = ******
   max r-space proj   IRMAX =      1   max aug-charges    IRDMAX=   9736
   dimension x,y,z NGX =   128 NGY =  128 NGZ =  210
   dimension x,y,z NGXF=   256 NGYF=  256 NGZF=  420
   support grid    NGXF=   256 NGYF=  256 NGZF=  420
   ions per type =              51   2
   NGX,Y,Z   is equivalent  to a cutoff of  17.27, 17.27, 17.46 a.u.
   NGXF,Y,Z  is equivalent  to a cutoff of  34.53, 34.53, 34.91 a.u.

 SYSTEM =  unknown system                          
 POSCAR =   C  O                                   

 Startparameter for this run:
   NWRITE =      2    write-flag & timer
   PREC   = accura    normal or accurate (medium, high low for compatibility)
   ISTART =      0    job   : 0-new  1-cont  2-samecut
   ICHARG =      2    charge: 1-file 2-atom 10-const
   ISPIN  =      1    spin polarized calculation?
   LNONCOLLINEAR =      F non collinear calculations
   LSORBIT =      F    spin-orbit coupling
   INIWAV =      1    electr: 0-lowe 1-rand  2-diag
   LASPH  =      T    aspherical Exc in radial PAW
 Electronic Relaxation 1
   ENCUT  = 1000.0 eV  73.50 Ry    8.57 a.u.  31.78 31.78 51.57*2*pi/ulx,y,z
   ENINI  = 1000.0     initial cutoff
   ENAUG  =  946.8 eV  augmentation charge cutoff
   NELM   =     60;   NELMIN=  2; NELMDL= -5     # of ELM steps 
   EDIFF  = 0.1E-06   stopping-criterion for ELM
   LREAL  =      F    real-space projection
   NLSPLINE    = F    spline interpolate recip. space projectors
   LCOMPAT=      F    compatible to vasp.4.4
   GGA_COMPAT  = T    GGA compatible to vasp.4.4-vasp.4.6
   LMAXPAW     = -100 max onsite density
   LMAXMIX     =    2 max onsite mixed and CHGCAR
   VOSKOWN=      0    Vosko Wilk Nusair interpolation
   ROPT   =    0.00000   0.00000
 Ionic relaxation
   EDIFFG = 0.1E-05   stopping-criterion for IOM
   NSW    =      0    number of steps for IOM
   NBLOCK =      1;   KBLOCK =      1    inner block; outer block 
   IBRION =     -1    ionic relax: 0-MD 1-quasi-New 2-CG
   NFREE  =      0    steps in history (QN), initial steepest desc. (CG)
   ISIF   =      0    stress and relaxation
   IWAVPR =     10    prediction:  0-non 1-charg 2-wave 3-comb
   ISYM   =      2    0-nonsym 1-usesym 2-fastsym
   LCORR  =      T    Harris-Foulkes like correction to forces

   POTIM  = 0.5000    time-step for ionic-motion
   TEIN   =    0.0    initial temperature
   TEBEG  =    0.0;   TEEND  =   0.0 temperature during run
   SMASS  =  -3.00    Nose mass-parameter (am)
   estimated Nose-frequenzy (Omega)   =  0.10E-29 period in steps = 0.13E+47 mass=  -0.347E-26a.u.
   SCALEE = 1.0000    scale energy and forces
   NPACO  =    256;   APACO  = 16.0  distance and # of slots for P.C.
   PSTRESS=    0.0 pullay stress

  Mass of Ions in am
   POMASS =  12.01 16.00
  Ionic Valenz
   ZVAL   =   4.00  6.00
  Atomic Wigner-Seitz radii
   RWIGS  =  -1.00 -1.00
  virtual crystal weights 
   VCA    =   1.00  1.00
   NELECT =     216.0000    total number of electrons
   NUPDOWN=      -1.0000    fix difference up-down

 DOS related values:
   EMIN   =  10.00;   EMAX   =-10.00  energy-range for DOS
   EFERMI =   0.00
   ISMEAR =     0;   SIGMA  =   0.01  broadening in eV -4-tet -1-fermi 0-gaus

 Electronic relaxation 2 (details)
   IALGO  =     58    algorithm
   LDIAG  =      T    sub-space diagonalisation (order eigenvalues)
   LSUBROT=      F    optimize rotation matrix (better conditioning)
   TURBO    =      0    0=normal 1=particle mesh
   IRESTART =      0    0=no restart 2=restart with 2 vectors
   NREBOOT  =      0    no. of reboots
   NMIN     =      0    reboot dimension
   EREF     =   0.00    reference energy to select bands
   IMIX   =      4    mixing-type and parameters
     AMIX     =   0.40;   BMIX     =  1.00
     AMIX_MAG =   1.60;   BMIX_MAG =  1.00
     AMIN     =   0.10
     WC   =   100.;   INIMIX=   1;  MIXPRE=   1;  MAXMIX= -45

 Intra band minimization:
   WEIMIN = 0.0000     energy-eigenvalue tresh-hold
   EBREAK =  0.18E-09  absolut break condition
   DEPER  =   0.30     relativ break condition  

   TIME   =   0.40     timestep for ELM

  volume/ion in A,a.u.               =      49.64       335.01
  Fermi-wavevector in a.u.,A,eV,Ry     =   0.711510  1.344560  6.887909  0.506247
  Thomas-Fermi vector in A             =   1.798641
 
 Write flags
   LWAVE        =      T    write WAVECAR
   LDOWNSAMPLE  =      F    k-point downsampling of WAVECAR
   LCHARG       =      T    write CHGCAR
   LVTOT        =      F    write LOCPOT, total local potential
   LVHAR        =      F    write LOCPOT, Hartree potential only
   LELF         =      F    write electronic localiz. function (ELF)
   LORBIT       =      0    0 simple, 1 ext, 2 COOP (PROOUT), +10 PAW based schemes


 Dipole corrections
   LMONO  =      F    monopole corrections only (constant potential shift)
   LDIPOL =      F    correct potential (dipole corrections)
   IDIPOL =      0    1-x, 2-y, 3-z, 4-all directions 
   EPSILON=  1.0000000 bulk dielectric constant

 Exchange correlation treatment:
   GGA     =    MK    GGA type
   LEXCH   =    43    internal setting for exchange type
   VOSKOWN=      0    Vosko Wilk Nusair interpolation
   LHFCALC =     F    Hartree Fock is set to
   LHFONE  =     F    Hartree Fock one center treatment
   AEXX    =    0.0000 exact exchange contribution

 vdW DFT:
   LUSE_VDW   =     T    switch on vdW DFT
   Zab_VDW    =-.8491    correlation parameter
   PARAM1     =0.1234
   PARAM2     =1.0000
   PARAM3     =0.0000
   -- rVV10 --
   BPARAM     = 6.3000
   CPARAM     = 0.0093

 Linear response parameters
   LEPSILON=     F    determine dielectric tensor
   LRPA    =     F    only Hartree local field effects (RPA)
   LNABLA  =     F    use nabla operator in PAW spheres
   LVEL    =     F    velocity operator in full k-point grid
   LINTERFAST=   F  fast interpolation
   KINTER  =     0    interpolate to denser k-point grid
   CSHIFT  =0.1000    complex shift for real part using Kramers Kronig
   OMEGAMAX=  -1.0    maximum frequency
   DEG_THRESHOLD= 0.2000000E-02 threshold for treating states as degnerate
   RTIME   =   -0.100 relaxation time in fs
  (WPLASMAI=    0.000 imaginary part of plasma frequency in eV, 0.658/RTIME)
   DFIELD  = 0.0000000 0.0000000 0.0000000 field for delta impulse in time
 
 Orbital magnetization related:
   ORBITALMAG=     F  switch on orbital magnetization
   LCHIMAG   =     F  perturbation theory with respect to B field
   DQ        =  0.001000  dq finite difference perturbation B field
   LLRAUG    =     F  two centre corrections for induced B field



--------------------------------------------------------------------------------------------------------


 Static calculation
 charge density and potential will be updated during run
 non-spin polarized calculation
 Conjugate gradient for all bands (Freysoldt, et al. PRB 79, 241103 (2009))
 preconditioned conjugated gradient                                        
 perform sub-space diagonalisation
    before iterative eigenvector-optimisation
 modified Broyden-mixing scheme, WC =      100.0
 initial mixing is a Kerker type mixing with AMIX =  0.4000 and BMIX =      1.0000
 Hartree-type preconditioning will be used
 using additional bands           28
 reciprocal scheme for non local part
 use partial core corrections
 no Harris-corrections to forces 
 use gradient corrections 
 use of overlap-Matrix (Vanderbilt PP)
 Gauss-broadening in eV      SIGMA  =   0.01


--------------------------------------------------------------------------------------------------------


  energy-cutoff  :     1000.00
  volume of cell :     2631.08
      direct lattice vectors                 reciprocal lattice vectors
    12.325000000  0.000000000  0.000000000     0.081135903  0.046843835  0.000000000
    -6.162500000 10.673763102  0.000000000     0.000000000  0.093687670  0.000000000
     0.000000000  0.000000000 20.000000000     0.000000000  0.000000000  0.050000000

  length of vectors
    12.325000000 12.325000000 20.000000000     0.093687670  0.093687670  0.050000000


 
 k-points in units of 2pi/SCALE and weight: auto                                    
   0.00000000  0.00000000  0.00000000       1.000
 
 k-points in reciprocal lattice and weights: auto                                    
   0.00000000  0.00000000  0.00000000       1.000
 
 position of ions in fractional coordinates (direct lattice) 
   0.97245084  0.00032082  0.00070839
   0.03911838  0.13365950  0.00055022
   0.17244363  0.00029545  0.00062454
   0.23909628  0.13364792  0.00032058
   0.97245206  0.20032201  0.00060652
   0.03912836  0.33364377  0.00055519
   0.17245176  0.20035455  0.00027396
   0.23912436  0.33366572  0.00009033
   0.37246557  0.00032440  0.00056739
   0.43913747  0.13361994  0.00032292
   0.97244982  0.40030936  0.00068451
   0.03912498  0.53363679  0.00071676
   0.37241618  0.40032948  0.00000000
   0.43909960  0.53363898  0.00029052
   0.57244368  0.00031213  0.00069947
   0.63911021  0.13363175  0.00068409
   0.97245270  0.60030565  0.00080036
   0.03912449  0.73364036  0.00081814
   0.57243347  0.60030624  0.00050362
   0.63911189  0.73364188  0.00065988
   0.17245463  0.40031823  0.00036131
   0.23912018  0.53363655  0.00047314
   0.37245975  0.20029599  0.00011125
   0.43910710  0.33367342  0.00006970
   0.17245216  0.60031151  0.00065542
   0.23912337  0.73363857  0.00071891
   0.57243108  0.20028917  0.00051662
   0.63911277  0.33361863  0.00057797
   0.37243981  0.60030802  0.00045356
   0.43911609  0.73363786  0.00061774
   0.57246936  0.40032050  0.00042490
   0.63911941  0.53365087  0.00057451
   0.77244572  0.00031543  0.00074520
   0.83911628  0.13364020  0.00071913
   0.77244051  0.20030743  0.00072629
   0.83912024  0.33363573  0.00073183
   0.77244632  0.40029837  0.00072872
   0.83911898  0.53363396  0.00077638
   0.77245614  0.60030817  0.00074464
   0.83911503  0.73364318  0.00078939
   0.97245531  0.80030558  0.00081529
   0.03911471  0.93364329  0.00074756
   0.17245797  0.80031221  0.00077922
   0.23913455  0.93364719  0.00068106
   0.37245140  0.80031667  0.00068925
   0.43912449  0.93364477  0.00067679
   0.57244110  0.80031005  0.00066817
   0.63911507  0.93363899  0.00073456
   0.77244510  0.80031319  0.00075258
   0.83911661  0.93364434  0.00075854
   0.37302101  0.25122688  0.31498026
   0.42087980  0.18931315  0.31820136
   0.32515698  0.31316719  0.31200752
 
 position of ions in cartesian coordinates  (Angst):
  11.98347958  0.00342433  0.01416777
  -0.34154264  1.42664989  0.01100432
   2.12354700  0.00315355  0.01249070
   2.12325634  1.42652621  0.00641170
  10.75098721  2.13818970  0.01213047
  -1.57382270  3.56123457  0.01110375
   0.89078307  2.13853702  0.00547917
   0.89099273  3.56146885  0.00180651
   4.58863896  0.00346260  0.01134782
   4.58893648  1.42622757  0.00645846
   9.51853763  4.27280730  0.01369027
  -2.80632132  5.69591267  0.01433526
   2.12299894  4.27302204  0.00000000
   2.12335237  5.69593607  0.00581036
   7.05344483  0.00333155  0.01398950
   7.05352764  1.42635365  0.01368187
   8.28609598  6.40752033  0.01600723
  -4.03884931  7.83070339  0.01636283
   3.35585531  6.40752662  0.01007237
   3.35598594  7.83071962  0.01319763
  -0.34145776  4.27290193  0.00722612
  -0.34137895  5.69591010  0.00946273
   3.35624236  2.13791198  0.00222492
   3.35573251  3.56155103  0.00139405
  -1.57394684  6.40758280  0.01310850
  -1.57385216  7.83068434  0.01437823
   5.82093107  2.13783916  0.01033241
   5.82114012  3.56096622  0.01155939
   0.89092245  6.40754561  0.00907111
   0.89106251  7.83067670  0.01235474
   4.58870974  4.27292622  0.00849795
   4.58852320  5.69606300  0.01149026
   9.51844972  0.00336679  0.01490402
   9.51855036  1.42644387  0.01438264
   8.28593477  2.13803408  0.01452582
   8.28612680  3.56114872  0.01463668
   7.05356221  4.27268994  0.01457444
   7.05362213  5.69588251  0.01552751
   5.82112285  6.40754723  0.01489279
   5.82101669  7.83073350  0.01578780
   7.05362858  8.54227219  0.01630582
  -5.27148792  9.96548729  0.01495127
  -2.80637951  8.54234295  0.01558431
  -2.80626749  9.96552896  0.01362126
  -0.34148805  8.54239058  0.01378498
  -0.34137657  9.96550309  0.01353576
   2.12342586  8.54231992  0.01336337
   2.12354296  9.96544135  0.01469111
   4.58845581  8.54235337  0.01505154
   4.58852904  9.96549848  0.01517076
   3.04929830  2.68153618  6.29960525
   4.02070129  2.02068374  6.36402711
   2.07766701  3.34267235  6.24015038
 


--------------------------------------------------------------------------------------------------------


 k-point   1 :   0.0000 0.0000 0.0000  plane waves:  189031

 maximum and minimum number of plane-waves per node :      6755     6748

 maximum number of plane-waves:    189031
 maximum index in each direction: 
   IXMAX=   31   IYMAX=   31   IZMAX=   51
   IXMIN=  -31   IYMIN=  -31   IZMIN=  -51


 parallel 3D FFT for wavefunctions:
    minimum data exchange during FFTs selected (reduces bandwidth)
 parallel 3D FFT for charge:
    minimum data exchange during FFTs selected (reduces bandwidth)


 total amount of memory used by VASP MPI-rank0    85439. kBytes
=======================================================================

   base      :      30000. kBytes
   nonl-proj :       6586. kBytes
   fftplans  :      14299. kBytes
   grid      :      23511. kBytes
   one-center:          6. kBytes
   wavefun   :      11037. kBytes
 
     INWAV:  cpu time    0.0000: real time    0.0000
 Broyden mixing: mesh for mixing (old mesh)
   NGX = 63   NGY = 63   NGZ =103
  (NGX  =256   NGY  =256   NGZ  =420)
  gives a total of 408807 points

 initial charge density was supplied:
 charge density of overlapping atoms calculated
 number of electron     216.0000000 magnetization 
 keeping initial charge density in first step


--------------------------------------------------------------------------------------------------------


 Maximum index for augmentation-charges          459 (set IRDMAX)


--------------------------------------------------------------------------------------------------------


 First call to EWALD:  gamma=   0.128
 Maximum number of real-space cells 3x 3x 2
 Maximum number of reciprocal cells 3x 3x 4

    FEWALD:  cpu time    0.0024: real time    0.0024


--------------------------------------- Iteration      1(   1)  ---------------------------------------


vdW kernel read from vdw_kernel.bindat
  0.0000  0.2424  0.5071  0.7962  1.1119  1.4567  1.8333  2.2446  2.6937  3.1842
  3.7199  4.3049  4.9438  5.6415  6.4036  7.2358  8.1446  9.1372 10.2212 11.4050
 12.6979 14.1099 15.6519 17.3360 19.1751 21.1837 23.3773 25.7729 28.3892 31.2465
 34.3669 37.7748 41.4965 45.5611 50.0000
 
    POTLOK:  cpu time    3.3879: real time    3.4297
    SETDIJ:  cpu time    0.0558: real time    0.0562
    TRIAL :  cpu time    1.5290: real time    1.5458
    CORREC:  cpu time    0.0006: real time    0.0008
    --------------------------------------------
      LOOP:  cpu time    4.9756: real time    5.0663

 eigenvalue-minimisations  :   272
 total energy-change (2. order) : 0.2758888E+04  (-0.1099085E+05)
 number of electron     216.0000000 magnetization 
 augmentation part      216.0000000 magnetization 

 Free energy of the ion-electron system (eV)
  ---------------------------------------------------
  alpha Z        PSCENC =        59.93625244
  Ewald energy   TEWEN  =     30724.26977768
  -Hartree energ DENC   =    -36899.72034120
  -exchange      EXHF   =         0.00000000
  -V(xc)+E(xc)   XCENC  =       414.10962400
  PAW double counting   =      6552.85433684    -6257.21772958
  entropy T*S    EENTRO =        -0.00000000
  eigenvalues    EBANDS =      -250.37949604
  atomic energy  EATOM  =      8415.03548706
  ---------------------------------------------------
  free energy    TOTEN  =      2758.88791119 eV

  energy without entropy =     2758.88791119  energy(sigma->0) =     2758.88791119


--------------------------------------------------------------------------------------------------------




--------------------------------------- Iteration      1(   2)  ---------------------------------------


    TRIAL :  cpu time    2.1845: real time    2.2065
    CORREC:  cpu time    0.0001: real time    0.0001
    --------------------------------------------
      LOOP:  cpu time    2.2571: real time    2.2798

 eigenvalue-minimisations  :   456
 total energy-change (2. order) :-0.2405019E+04  (-0.2256660E+04)
 number of electron     216.0000000 magnetization 
 augmentation part      216.0000000 magnetization 

 Free energy of the ion-electron system (eV)
  ---------------------------------------------------
  alpha Z        PSCENC =        59.93625244
  Ewald energy   TEWEN  =     30724.26977768
  -Hartree energ DENC   =    -36899.72034120
  -exchange      EXHF   =         0.00000000
  -V(xc)+E(xc)   XCENC  =       414.10962400
  PAW double counting   =      6552.85433684    -6257.21772958
  entropy T*S    EENTRO =        -0.00000000
  eigenvalues    EBANDS =     -2655.39834399
  atomic energy  EATOM  =      8415.03548706
  ---------------------------------------------------
  free energy    TOTEN  =       353.86906325 eV

  energy without entropy =      353.86906325  energy(sigma->0) =      353.86906325


--------------------------------------------------------------------------------------------------------




--------------------------------------- Iteration      1(   3)  ---------------------------------------


    TRIAL :  cpu time    1.7750: real time    1.7988
    CORREC:  cpu time    0.0001: real time    0.0001
    --------------------------------------------
      LOOP:  cpu time    1.8149: real time    1.8393

 eigenvalue-minimisations  :   352
 total energy-change (2. order) :-0.7471544E+03  (-0.7416580E+03)
 number of electron     216.0000000 magnetization 
 augmentation part      216.0000000 magnetization 

 Free energy of the ion-electron system (eV)
  ---------------------------------------------------
  alpha Z        PSCENC =        59.93625244
  Ewald energy   TEWEN  =     30724.26977768
  -Hartree energ DENC   =    -36899.72034120
  -exchange      EXHF   =         0.00000000
  -V(xc)+E(xc)   XCENC  =       414.10962400
  PAW double counting   =      6552.85433684    -6257.21772958
  entropy T*S    EENTRO =        -0.00000000
  eigenvalues    EBANDS =     -3402.55278276
  atomic energy  EATOM  =      8415.03548706
  ---------------------------------------------------
  free energy    TOTEN  =      -393.28537553 eV

  energy without entropy =     -393.28537553  energy(sigma->0) =     -393.28537553


--------------------------------------------------------------------------------------------------------




--------------------------------------- Iteration      1(   4)  ---------------------------------------


    TRIAL :  cpu time    1.7513: real time    1.7673
    CORREC:  cpu time    0.0001: real time    0.0001
    --------------------------------------------
      LOOP:  cpu time    1.8149: real time    1.8335

 eigenvalue-minimisations  :   344
 total energy-change (2. order) :-0.5504465E+02  (-0.5449292E+02)
 number of electron     216.0000000 magnetization 
 augmentation part      216.0000000 magnetization 

 Free energy of the ion-electron system (eV)
  ---------------------------------------------------
  alpha Z        PSCENC =        59.93625244
  Ewald energy   TEWEN  =     30724.26977768
  -Hartree energ DENC   =    -36899.72034120
  -exchange      EXHF   =         0.00000000
  -V(xc)+E(xc)   XCENC  =       414.10962400
  PAW double counting   =      6552.85433684    -6257.21772958
  entropy T*S    EENTRO =        -0.00000000
  eigenvalues    EBANDS =     -3457.59743137
  atomic energy  EATOM  =      8415.03548706
  ---------------------------------------------------
  free energy    TOTEN  =      -448.33002414 eV

  energy without entropy =     -448.33002414  energy(sigma->0) =     -448.33002414


--------------------------------------------------------------------------------------------------------




--------------------------------------- Iteration      1(   5)  ---------------------------------------


    TRIAL :  cpu time    1.9366: real time    1.9543
    CORREC:  cpu time    0.0001: real time    0.0001
    CHARGE:  cpu time    0.1173: real time    0.1190
    --------------------------------------------
      LOOP:  cpu time    2.1089: real time    2.1291

 eigenvalue-minimisations  :   392
 total energy-change (2. order) :-0.1661893E+01  (-0.1656323E+01)
 number of electron     216.0000000 magnetization 
 augmentation part       -0.2453506 magnetization 

 Free energy of the ion-electron system (eV)
  ---------------------------------------------------
  alpha Z        PSCENC =        59.93625244
  Ewald energy   TEWEN  =     30724.26977768
  -Hartree energ DENC   =    -36899.72034120
  -exchange      EXHF   =         0.00000000
  -V(xc)+E(xc)   XCENC  =       414.10962400
  PAW double counting   =      6552.85433684    -6257.21772958
  entropy T*S    EENTRO =        -0.00000000
  eigenvalues    EBANDS =     -3459.25932456
  atomic energy  EATOM  =      8415.03548706
  ---------------------------------------------------
  free energy    TOTEN  =      -449.99191732 eV

  energy without entropy =     -449.99191732  energy(sigma->0) =     -449.99191732


--------------------------------------------------------------------------------------------------------




--------------------------------------- Iteration      1(   6)  ---------------------------------------


    POTLOK:  cpu time    3.0568: real time    3.0809
    SETDIJ:  cpu time    0.0545: real time    0.0547
    TRIAL :  cpu time    0.8609: real time    0.8694
    CORREC:  cpu time    3.4046: real time    3.4323
    CHARGE:  cpu time    0.1149: real time    0.1160
    --------------------------------------------
      LOOP:  cpu time    7.5134: real time    7.5806

 eigenvalue-minimisations  :     0
 total energy-change (2. order) : 0.5127337E+02  (-0.1605419E+02)
 number of electron     216.0000000 magnetization 
 augmentation part       -0.3428402 magnetization 

 Free energy of the ion-electron system (eV)
  ---------------------------------------------------
  alpha Z        PSCENC =        59.93625244
  Ewald energy   TEWEN  =     30724.26977768
  -Hartree energ DENC   =    -38305.57463341
  -exchange      EXHF   =         0.00000000
  -V(xc)+E(xc)   XCENC  =       461.75594525
  PAW double counting   =     85914.14409800   -85623.52313892
  entropy T*S    EENTRO =        -0.00000000
  eigenvalues    EBANDS =     -2044.76233536
  atomic energy  EATOM  =      8415.03548706
  ---------------------------------------------------
  free energy    TOTEN  =      -398.71854726 eV

  energy without entropy =     -398.71854726  energy(sigma->0) =     -398.71854726


--------------------------------------------------------------------------------------------------------




--------------------------------------- Iteration      1(   7)  ---------------------------------------


    POTLOK:  cpu time    3.0512: real time    3.0753
    SETDIJ:  cpu time    0.0650: real time    0.0653
    TRIAL :  cpu time    0.8516: real time    0.8659
    CORREC:  cpu time    3.4127: real time    3.4446
    CHARGE:  cpu time    0.1156: real time    0.1169
    --------------------------------------------
      LOOP:  cpu time    7.5741: real time    7.6796

 eigenvalue-minimisations  :     0
 total energy-change (2. order) :-0.1610497E+02  (-0.1831063E+01)
 number of electron     216.0000000 magnetization 
 augmentation part       -0.3874456 magnetization 

 Free energy of the ion-electron system (eV)
  ---------------------------------------------------
  alpha Z        PSCENC =        59.93625244
  Ewald energy   TEWEN  =     30724.26977768
  -Hartree energ DENC   =    -37795.95353143
  -exchange      EXHF   =         0.00000000
  -V(xc)+E(xc)   XCENC  =       444.51897408
  PAW double counting   =    101024.32004269  -100731.26606708
  entropy T*S    EENTRO =        -0.00000000
  eigenvalues    EBANDS =     -2555.68445436
  atomic energy  EATOM  =      8415.03548706
  ---------------------------------------------------
  free energy    TOTEN  =      -414.82351892 eV

  energy without entropy =     -414.82351892  energy(sigma->0) =     -414.82351892


--------------------------------------------------------------------------------------------------------




--------------------------------------- Iteration      1(   8)  ---------------------------------------


    POTLOK:  cpu time    3.0659: real time    3.0891
    SETDIJ:  cpu time    0.0625: real time    0.0627
    TRIAL :  cpu time    0.8572: real time    0.8654
    CORREC:  cpu time    3.4298: real time    3.4581
    CHARGE:  cpu time    0.1152: real time    0.1165
    --------------------------------------------
      LOOP:  cpu time    7.5759: real time    7.6485

 eigenvalue-minimisations  :     0
 total energy-change (2. order) :-0.1829330E+01  (-0.4785051E+00)
 number of electron     216.0000000 magnetization 
 augmentation part       -0.4050013 magnetization 

 Free energy of the ion-electron system (eV)
  ---------------------------------------------------
  alpha Z        PSCENC =        59.93625244
  Ewald energy   TEWEN  =     30724.26977768
  -Hartree energ DENC   =    -37767.48042340
  -exchange      EXHF   =         0.00000000
  -V(xc)+E(xc)   XCENC  =       443.99944586
  PAW double counting   =    104873.21680859  -104579.88951614
  entropy T*S    EENTRO =        -0.00000000
  eigenvalues    EBANDS =     -2585.74068062
  atomic energy  EATOM  =      8415.03548706
  ---------------------------------------------------
  free energy    TOTEN  =      -416.65284853 eV

  energy without entropy =     -416.65284853  energy(sigma->0) =     -416.65284853


--------------------------------------------------------------------------------------------------------




--------------------------------------- Iteration      1(   9)  ---------------------------------------


    POTLOK:  cpu time    3.0547: real time    3.0783
    SETDIJ:  cpu time    0.0649: real time    0.0651
    TRIAL :  cpu time    0.8600: real time    0.8682
    CORREC:  cpu time    3.4081: real time    3.4365
    CHARGE:  cpu time    0.1157: real time    0.1169
    --------------------------------------------
      LOOP:  cpu time    7.5389: real time    7.6343

 eigenvalue-minimisations  :     0
 total energy-change (2. order) :-0.4784629E+00  (-0.1627379E+00)
 number of electron     216.0000000 magnetization 
 augmentation part       -0.4136877 magnetization 

 Free energy of the ion-electron system (eV)
  ---------------------------------------------------
  alpha Z        PSCENC =        59.93625244
  Ewald energy   TEWEN  =     30724.26977768
  -Hartree energ DENC   =    -37783.93053132
  -exchange      EXHF   =         0.00000000
  -V(xc)+E(xc)   XCENC  =       444.22330243
  PAW double counting   =    107424.57936887  -107131.13950106
  entropy T*S    EENTRO =        -0.00000000
  eigenvalues    EBANDS =     -2570.10546752
  atomic energy  EATOM  =      8415.03548706
  ---------------------------------------------------
  free energy    TOTEN  =      -417.13131141 eV

  energy without entropy =     -417.13131141  energy(sigma->0) =     -417.13131141


--------------------------------------------------------------------------------------------------------




--------------------------------------- Iteration      1(  10)  ---------------------------------------


    POTLOK:  cpu time    3.0666: real time    3.0903
    SETDIJ:  cpu time    0.0630: real time    0.0632
    TRIAL :  cpu time    0.8575: real time    0.8660
    CORREC:  cpu time    3.4051: real time    3.4353
    CHARGE:  cpu time    0.1153: real time    0.1168
    --------------------------------------------
      LOOP:  cpu time    7.5603: real time    7.6268

 eigenvalue-minimisations  :     0
 total energy-change (2. order) :-0.1624604E+00  (-0.7072121E-01)
 number of electron     216.0000000 magnetization 
 augmentation part       -0.4145102 magnetization 

 Free energy of the ion-electron system (eV)
  ---------------------------------------------------
  alpha Z        PSCENC =        59.93625244
  Ewald energy   TEWEN  =     30724.26977768
  -Hartree energ DENC   =    -37783.65294136
  -exchange      EXHF   =         0.00000000
  -V(xc)+E(xc)   XCENC  =       444.11744669
  PAW double counting   =    107903.92551557  -107610.40950709
  entropy T*S    EENTRO =        -0.00000000
  eigenvalues    EBANDS =     -2570.51580276
  atomic energy  EATOM  =      8415.03548706
  ---------------------------------------------------
  free energy    TOTEN  =      -417.29377178 eV

  energy without entropy =     -417.29377178  energy(sigma->0) =     -417.29377178


--------------------------------------------------------------------------------------------------------




--------------------------------------- Iteration      1(  11)  ---------------------------------------


    POTLOK:  cpu time    3.0577: real time    3.0858
    SETDIJ:  cpu time    0.0651: real time    0.0653
    TRIAL :  cpu time    0.8668: real time    0.8765
    CORREC:  cpu time    3.4411: real time    3.4697
    CHARGE:  cpu time    0.1157: real time    0.1169
    --------------------------------------------
      LOOP:  cpu time    7.6168: real time    7.6863

 eigenvalue-minimisations  :     0
 total energy-change (2. order) :-0.7048871E-01  (-0.3021279E-01)
 number of electron     216.0000000 magnetization 
 augmentation part       -0.4144338 magnetization 

 Free energy of the ion-electron system (eV)
  ---------------------------------------------------
  alpha Z        PSCENC =        59.93625244
  Ewald energy   TEWEN  =     30724.26977768
  -Hartree energ DENC   =    -37778.88454172
  -exchange      EXHF   =         0.00000000
  -V(xc)+E(xc)   XCENC  =       444.05785226
  PAW double counting   =    107506.10619453  -107212.59340726
  entropy T*S    EENTRO =        -0.00000000
  eigenvalues    EBANDS =     -2575.29187547
  atomic energy  EATOM  =      8415.03548706
  ---------------------------------------------------
  free energy    TOTEN  =      -417.36426048 eV

  energy without entropy =     -417.36426048  energy(sigma->0) =     -417.36426048


--------------------------------------------------------------------------------------------------------




--------------------------------------- Iteration      1(  12)  ---------------------------------------


    POTLOK:  cpu time    3.0659: real time    3.0923
    SETDIJ:  cpu time    0.0641: real time    0.0644
    TRIAL :  cpu time    0.8545: real time    0.8630
    CORREC:  cpu time    3.4194: real time    3.4499
    CHARGE:  cpu time    0.1161: real time    0.1174
    --------------------------------------------
      LOOP:  cpu time    7.5873: real time    7.6567

 eigenvalue-minimisations  :     0
 total energy-change (2. order) :-0.3010624E-01  (-0.1023517E-01)
 number of electron     216.0000000 magnetization 
 augmentation part       -0.4145459 magnetization 

 Free energy of the ion-electron system (eV)
  ---------------------------------------------------
  alpha Z        PSCENC =        59.93625244
  Ewald energy   TEWEN  =     30724.26977768
  -Hartree energ DENC   =    -37776.57496327
  -exchange      EXHF   =         0.00000000
  -V(xc)+E(xc)   XCENC  =       443.99944392
  PAW double counting   =    107198.48383241  -106904.98651199
  entropy T*S    EENTRO =        -0.00000000
  eigenvalues    EBANDS =     -2577.55768498
  atomic energy  EATOM  =      8415.03548706
  ---------------------------------------------------
  free energy    TOTEN  =      -417.39436673 eV

  energy without entropy =     -417.39436673  energy(sigma->0) =     -417.39436673


--------------------------------------------------------------------------------------------------------




--------------------------------------- Iteration      1(  13)  ---------------------------------------


    POTLOK:  cpu time    3.0674: real time    3.0937
    SETDIJ:  cpu time    0.0647: real time    0.0650
    TRIAL :  cpu time    0.8578: real time    0.8664
    CORREC:  cpu time    3.4049: real time    3.4349
    CHARGE:  cpu time    0.1170: real time    0.1182
    --------------------------------------------
      LOOP:  cpu time    7.5506: real time    7.6183

 eigenvalue-minimisations  :     0
 total energy-change (2. order) :-0.1022659E-01  (-0.3001819E-02)
 number of electron     216.0000000 magnetization 
 augmentation part       -0.4140264 magnetization 

 Free energy of the ion-electron system (eV)
  ---------------------------------------------------
  alpha Z        PSCENC =        59.93625244
  Ewald energy   TEWEN  =     30724.26977768
  -Hartree energ DENC   =    -37776.71815196
  -exchange      EXHF   =         0.00000000
  -V(xc)+E(xc)   XCENC  =       443.99731685
  PAW double counting   =    107082.32690273  -106788.83872548
  entropy T*S    EENTRO =        -0.00000000
  eigenvalues    EBANDS =     -2577.41345264
  atomic energy  EATOM  =      8415.03548706
  ---------------------------------------------------
  free energy    TOTEN  =      -417.40459332 eV

  energy without entropy =     -417.40459332  energy(sigma->0) =     -417.40459332


--------------------------------------------------------------------------------------------------------




--------------------------------------- Iteration      1(  14)  ---------------------------------------


    POTLOK:  cpu time    3.0458: real time    3.0883
    SETDIJ:  cpu time    0.0648: real time    0.0650
    TRIAL :  cpu time    0.8570: real time    0.8657
    CORREC:  cpu time    3.4084: real time    3.4370
    CHARGE:  cpu time    0.1141: real time    0.1153
    --------------------------------------------
      LOOP:  cpu time    7.5245: real time    7.6062

 eigenvalue-minimisations  :     0
 total energy-change (2. order) :-0.3004774E-02  (-0.1024488E-02)
 number of electron     216.0000000 magnetization 
 augmentation part       -0.4137545 magnetization 

 Free energy of the ion-electron system (eV)
  ---------------------------------------------------
  alpha Z        PSCENC =        59.93625244
  Ewald energy   TEWEN  =     30724.26977768
  -Hartree energ DENC   =    -37776.66212480
  -exchange      EXHF   =         0.00000000
  -V(xc)+E(xc)   XCENC  =       443.99566332
  PAW double counting   =    107091.84891167  -106798.36420010
  entropy T*S    EENTRO =        -0.00000000
  eigenvalues    EBANDS =     -2577.46736536
  atomic energy  EATOM  =      8415.03548706
  ---------------------------------------------------
  free energy    TOTEN  =      -417.40759809 eV

  energy without entropy =     -417.40759809  energy(sigma->0) =     -417.40759809


--------------------------------------------------------------------------------------------------------




--------------------------------------- Iteration      1(  15)  ---------------------------------------


    POTLOK:  cpu time    3.0528: real time    3.0764
    SETDIJ:  cpu time    0.0631: real time    0.0634
    TRIAL :  cpu time    0.8764: real time    0.8855
    CORREC:  cpu time    3.4207: real time    3.4540
    CHARGE:  cpu time    0.1159: real time    0.1173
    --------------------------------------------
      LOOP:  cpu time    7.6034: real time    7.6812

 eigenvalue-minimisations  :     0
 total energy-change (2. order) :-0.1027519E-02  (-0.4796720E-03)
 number of electron     216.0000000 magnetization 
 augmentation part       -0.4132981 magnetization 

 Free energy of the ion-electron system (eV)
  ---------------------------------------------------
  alpha Z        PSCENC =        59.93625244
  Ewald energy   TEWEN  =     30724.26977768
  -Hartree energ DENC   =    -37776.24601183
  -exchange      EXHF   =         0.00000000
  -V(xc)+E(xc)   XCENC  =       443.97508400
  PAW double counting   =    107096.05057060  -106802.56402805
  entropy T*S    EENTRO =        -0.00000000
  eigenvalues    EBANDS =     -2577.86575752
  atomic energy  EATOM  =      8415.03548706
  ---------------------------------------------------
  free energy    TOTEN  =      -417.40862561 eV

  energy without entropy =     -417.40862561  energy(sigma->0) =     -417.40862561


--------------------------------------------------------------------------------------------------------




--------------------------------------- Iteration      1(  16)  ---------------------------------------


    POTLOK:  cpu time    3.0441: real time    3.0879
    SETDIJ:  cpu time    0.0619: real time    0.0621
    TRIAL :  cpu time    0.8540: real time    0.8643
    CORREC:  cpu time    3.4014: real time    3.4373
    CHARGE:  cpu time    0.1160: real time    0.1173
    --------------------------------------------
      LOOP:  cpu time    7.4916: real time    7.6294

 eigenvalue-minimisations  :     0
 total energy-change (2. order) :-0.4816031E-03  (-0.2336527E-03)
 number of electron     216.0000000 magnetization 
 augmentation part       -0.4131578 magnetization 

 Free energy of the ion-electron system (eV)
  ---------------------------------------------------
  alpha Z        PSCENC =        59.93625244
  Ewald energy   TEWEN  =     30724.26977768
  -Hartree energ DENC   =    -37776.61924092
  -exchange      EXHF   =         0.00000000
  -V(xc)+E(xc)   XCENC  =       443.98897748
  PAW double counting   =    107047.58123231  -106754.09676959
  entropy T*S    EENTRO =        -0.00000000
  eigenvalues    EBANDS =     -2577.50482367
  atomic energy  EATOM  =      8415.03548706
  ---------------------------------------------------
  free energy    TOTEN  =      -417.40910721 eV

  energy without entropy =     -417.40910721  energy(sigma->0) =     -417.40910721


--------------------------------------------------------------------------------------------------------




--------------------------------------- Iteration      1(  17)  ---------------------------------------


    POTLOK:  cpu time    3.0589: real time    3.0815
    SETDIJ:  cpu time    0.0651: real time    0.0653
    TRIAL :  cpu time    0.8488: real time    0.8641
    CORREC:  cpu time    3.4020: real time    3.4420
    CHARGE:  cpu time    0.1159: real time    0.1171
    --------------------------------------------
      LOOP:  cpu time    7.5788: real time    7.6596

 eigenvalue-minimisations  :     0
 total energy-change (2. order) :-0.2348498E-03  (-0.1026673E-03)
 number of electron     216.0000000 magnetization 
 augmentation part       -0.4131974 magnetization 

 Free energy of the ion-electron system (eV)
  ---------------------------------------------------
  alpha Z        PSCENC =        59.93625244
  Ewald energy   TEWEN  =     30724.26977768
  -Hartree energ DENC   =    -37776.69516973
  -exchange      EXHF   =         0.00000000
  -V(xc)+E(xc)   XCENC  =       443.98870491
  PAW double counting   =    106998.79517167  -106705.31000286
  entropy T*S    EENTRO =        -0.00000000
  eigenvalues    EBANDS =     -2577.42956324
  atomic energy  EATOM  =      8415.03548706
  ---------------------------------------------------
  free energy    TOTEN  =      -417.40934206 eV

  energy without entropy =     -417.40934206  energy(sigma->0) =     -417.40934206


--------------------------------------------------------------------------------------------------------




--------------------------------------- Iteration      1(  18)  ---------------------------------------


    POTLOK:  cpu time    3.0537: real time    3.0801
    SETDIJ:  cpu time    0.0645: real time    0.0647
    TRIAL :  cpu time    0.8595: real time    0.8679
    CORREC:  cpu time    3.4051: real time    3.4328
    CHARGE:  cpu time    0.1145: real time    0.1157
    --------------------------------------------
      LOOP:  cpu time    7.5245: real time    7.6027

 eigenvalue-minimisations  :     0
 total energy-change (2. order) :-0.1026056E-03  (-0.3812640E-04)
 number of electron     216.0000000 magnetization 
 augmentation part       -0.4133626 magnetization 

 Free energy of the ion-electron system (eV)
  ---------------------------------------------------
  alpha Z        PSCENC =        59.93625244
  Ewald energy   TEWEN  =     30724.26977768
  -Hartree energ DENC   =    -37776.73832425
  -exchange      EXHF   =         0.00000000
  -V(xc)+E(xc)   XCENC  =       443.99128372
  PAW double counting   =    106986.70140678  -106693.21591566
  entropy T*S    EENTRO =        -0.00000000
  eigenvalues    EBANDS =     -2577.38941244
  atomic energy  EATOM  =      8415.03548706
  ---------------------------------------------------
  free energy    TOTEN  =      -417.40944467 eV

  energy without entropy =     -417.40944467  energy(sigma->0) =     -417.40944467


--------------------------------------------------------------------------------------------------------




--------------------------------------- Iteration      1(  19)  ---------------------------------------


    POTLOK:  cpu time    3.0484: real time    3.0729
    SETDIJ:  cpu time    0.0646: real time    0.0649
    TRIAL :  cpu time    0.8582: real time    0.8668
    CORREC:  cpu time    3.4256: real time    3.4528
    CHARGE:  cpu time    0.1146: real time    0.1158
    --------------------------------------------
      LOOP:  cpu time    7.5934: real time    7.6827

 eigenvalue-minimisations  :     0
 total energy-change (2. order) :-0.3768102E-04  (-0.1593847E-04)
 number of electron     216.0000000 magnetization 
 augmentation part       -0.4134452 magnetization 

 Free energy of the ion-electron system (eV)
  ---------------------------------------------------
  alpha Z        PSCENC =        59.93625244
  Ewald energy   TEWEN  =     30724.26977768
  -Hartree energ DENC   =    -37776.72218030
  -exchange      EXHF   =         0.00000000
  -V(xc)+E(xc)   XCENC  =       443.99027251
  PAW double counting   =    106997.34335449  -106703.85713740
  entropy T*S    EENTRO =        -0.00000000
  eigenvalues    EBANDS =     -2577.40530884
  atomic energy  EATOM  =      8415.03548706
  ---------------------------------------------------
  free energy    TOTEN  =      -417.40948235 eV

  energy without entropy =     -417.40948235  energy(sigma->0) =     -417.40948235


--------------------------------------------------------------------------------------------------------




--------------------------------------- Iteration      1(  20)  ---------------------------------------


    POTLOK:  cpu time    3.0671: real time    3.0911
    SETDIJ:  cpu time    0.0626: real time    0.0628
    TRIAL :  cpu time    0.8540: real time    0.8626
    CORREC:  cpu time    3.4384: real time    3.4672
    CHARGE:  cpu time    0.1165: real time    0.1176
    --------------------------------------------
      LOOP:  cpu time    7.5636: real time    7.6517

 eigenvalue-minimisations  :     0
 total energy-change (2. order) :-0.1547766E-04  (-0.7146169E-05)
 number of electron     216.0000000 magnetization 
 augmentation part       -0.4134745 magnetization 

 Free energy of the ion-electron system (eV)
  ---------------------------------------------------
  alpha Z        PSCENC =        59.93625244
  Ewald energy   TEWEN  =     30724.26977768
  -Hartree energ DENC   =    -37776.75620933
  -exchange      EXHF   =         0.00000000
  -V(xc)+E(xc)   XCENC  =       443.99147721
  PAW double counting   =    107007.64074972  -106714.15453438
  entropy T*S    EENTRO =        -0.00000000
  eigenvalues    EBANDS =     -2577.37249823
  atomic energy  EATOM  =      8415.03548706
  ---------------------------------------------------
  free energy    TOTEN  =      -417.40949783 eV

  energy without entropy =     -417.40949783  energy(sigma->0) =     -417.40949783


--------------------------------------------------------------------------------------------------------




--------------------------------------- Iteration      1(  21)  ---------------------------------------


    POTLOK:  cpu time    3.0585: real time    3.0816
    SETDIJ:  cpu time    0.0650: real time    0.0652
    TRIAL :  cpu time    0.8568: real time    0.8653
    CORREC:  cpu time    3.4095: real time    3.4385
    CHARGE:  cpu time    0.1149: real time    0.1161
    --------------------------------------------
      LOOP:  cpu time    7.5286: real time    7.5973

 eigenvalue-minimisations  :     0
 total energy-change (2. order) :-0.6973802E-05  (-0.3526690E-05)
 number of electron     216.0000000 magnetization 
 augmentation part       -0.4134522 magnetization 

 Free energy of the ion-electron system (eV)
  ---------------------------------------------------
  alpha Z        PSCENC =        59.93625244
  Ewald energy   TEWEN  =     30724.26977768
  -Hartree energ DENC   =    -37776.72903184
  -exchange      EXHF   =         0.00000000
  -V(xc)+E(xc)   XCENC  =       443.99019426
  PAW double counting   =    107010.38311853  -106716.89685085
  entropy T*S    EENTRO =        -0.00000000
  eigenvalues    EBANDS =     -2577.39845208
  atomic energy  EATOM  =      8415.03548706
  ---------------------------------------------------
  free energy    TOTEN  =      -417.40950480 eV

  energy without entropy =     -417.40950480  energy(sigma->0) =     -417.40950480


--------------------------------------------------------------------------------------------------------




--------------------------------------- Iteration      1(  22)  ---------------------------------------


    POTLOK:  cpu time    3.0587: real time    3.0848
    SETDIJ:  cpu time    0.0623: real time    0.0625
    TRIAL :  cpu time    0.8552: real time    0.8651
    CORREC:  cpu time    3.4013: real time    3.4303
    CHARGE:  cpu time    0.1155: real time    0.1167
    --------------------------------------------
      LOOP:  cpu time    7.5660: real time    7.6434

 eigenvalue-minimisations  :     0
 total energy-change (2. order) :-0.3493144E-05  (-0.1434134E-05)
 number of electron     216.0000000 magnetization 
 augmentation part       -0.4134417 magnetization 

 Free energy of the ion-electron system (eV)
  ---------------------------------------------------
  alpha Z        PSCENC =        59.93625244
  Ewald energy   TEWEN  =     30724.26977768
  -Hartree energ DENC   =    -37776.73427538
  -exchange      EXHF   =         0.00000000
  -V(xc)+E(xc)   XCENC  =       443.99055887
  PAW double counting   =    107009.00872465  -106715.52268067
  entropy T*S    EENTRO =        -0.00000000
  eigenvalues    EBANDS =     -2577.39335294
  atomic energy  EATOM  =      8415.03548706
  ---------------------------------------------------
  free energy    TOTEN  =      -417.40950829 eV

  energy without entropy =     -417.40950829  energy(sigma->0) =     -417.40950829


--------------------------------------------------------------------------------------------------------




--------------------------------------- Iteration      1(  23)  ---------------------------------------


    POTLOK:  cpu time    3.0586: real time    3.0823
    SETDIJ:  cpu time    0.0627: real time    0.0629
    TRIAL :  cpu time    0.8587: real time    0.8673
    CORREC:  cpu time    3.4190: real time    3.4470
    CHARGE:  cpu time    0.1153: real time    0.1165
    --------------------------------------------
      LOOP:  cpu time    7.5855: real time    7.6516

 eigenvalue-minimisations  :     0
 total energy-change (2. order) :-0.1446271E-05  (-0.6109960E-06)
 number of electron     216.0000000 magnetization 
 augmentation part       -0.4134355 magnetization 

 Free energy of the ion-electron system (eV)
  ---------------------------------------------------
  alpha Z        PSCENC =        59.93625244
  Ewald energy   TEWEN  =     30724.26977768
  -Hartree energ DENC   =    -37776.72582508
  -exchange      EXHF   =         0.00000000
  -V(xc)+E(xc)   XCENC  =       443.99027676
  PAW double counting   =    107007.86209988  -106714.37606200
  entropy T*S    EENTRO =        -0.00000000
  eigenvalues    EBANDS =     -2577.40151648
  atomic energy  EATOM  =      8415.03548706
  ---------------------------------------------------
  free energy    TOTEN  =      -417.40950974 eV

  energy without entropy =     -417.40950974  energy(sigma->0) =     -417.40950974


--------------------------------------------------------------------------------------------------------




--------------------------------------- Iteration      1(  24)  ---------------------------------------


    POTLOK:  cpu time    3.0587: real time    3.0816
    SETDIJ:  cpu time    0.0648: real time    0.0650
    TRIAL :  cpu time    0.8709: real time    0.8811
    CORREC:  cpu time    3.4094: real time    3.4388
    CHARGE:  cpu time    0.1158: real time    0.1170
    --------------------------------------------
      LOOP:  cpu time    7.5588: real time    7.6365

 eigenvalue-minimisations  :     0
 total energy-change (2. order) :-0.6229966E-06  (-0.2446853E-06)
 number of electron     216.0000000 magnetization 
 augmentation part       -0.4134339 magnetization 

 Free energy of the ion-electron system (eV)
  ---------------------------------------------------
  alpha Z        PSCENC =        59.93625244
  Ewald energy   TEWEN  =     30724.26977768
  -Hartree energ DENC   =    -37776.72232363
  -exchange      EXHF   =         0.00000000
  -V(xc)+E(xc)   XCENC  =       443.99028094
  PAW double counting   =    107007.58806099  -106714.10201570
  entropy T*S    EENTRO =        -0.00000000
  eigenvalues    EBANDS =     -2577.40503015
  atomic energy  EATOM  =      8415.03548706
  ---------------------------------------------------
  free energy    TOTEN  =      -417.40951036 eV

  energy without entropy =     -417.40951036  energy(sigma->0) =     -417.40951036


--------------------------------------------------------------------------------------------------------




--------------------------------------- Iteration      1(  25)  ---------------------------------------


    POTLOK:  cpu time    3.0604: real time    3.0835
    SETDIJ:  cpu time    0.0648: real time    0.0650
    TRIAL :  cpu time    0.8565: real time    0.8645
    CORREC:  cpu time    3.4040: real time    3.4340
    CHARGE:  cpu time    0.1144: real time    0.1157
    --------------------------------------------
      LOOP:  cpu time    7.5361: real time    7.6113

 eigenvalue-minimisations  :     0
 total energy-change (2. order) :-0.2512970E-06  (-0.1037455E-06)
 number of electron     216.0000000 magnetization 
 augmentation part       -0.4134345 magnetization 

 Free energy of the ion-electron system (eV)
  ---------------------------------------------------
  alpha Z        PSCENC =        59.93625244
  Ewald energy   TEWEN  =     30724.26977768
  -Hartree energ DENC   =    -37776.72312779
  -exchange      EXHF   =         0.00000000
  -V(xc)+E(xc)   XCENC  =       443.99036227
  PAW double counting   =    107007.65247995  -106714.16642162
  entropy T*S    EENTRO =        -0.00000000
  eigenvalues    EBANDS =     -2577.40432060
  atomic energy  EATOM  =      8415.03548706
  ---------------------------------------------------
  free energy    TOTEN  =      -417.40951061 eV

  energy without entropy =     -417.40951061  energy(sigma->0) =     -417.40951061


--------------------------------------------------------------------------------------------------------




--------------------------------------- Iteration      1(  26)  ---------------------------------------


    POTLOK:  cpu time    3.0659: real time    3.0887
    SETDIJ:  cpu time    0.0646: real time    0.0648
    TRIAL :  cpu time    0.8575: real time    0.8659
    CORREC:  cpu time    3.4049: real time    3.4326
    CHARGE:  cpu time    0.1147: real time    0.1157
    --------------------------------------------
      LOOP:  cpu time    7.5385: real time    7.6002

 eigenvalue-minimisations  :     0
 total energy-change (2. order) :-0.1068838E-06  (-0.5310129E-07)
 number of electron     216.0000000 magnetization 
 augmentation part       -0.4134325 magnetization 

 Free energy of the ion-electron system (eV)
  ---------------------------------------------------
  alpha Z        PSCENC =        59.93625244
  Ewald energy   TEWEN  =     30724.26977768
  -Hartree energ DENC   =    -37776.72253742
  -exchange      EXHF   =         0.00000000
  -V(xc)+E(xc)   XCENC  =       443.99030384
  PAW double counting   =    107007.71788253  -106714.23179915
  entropy T*S    EENTRO =        -0.00000000
  eigenvalues    EBANDS =     -2577.40487771
  atomic energy  EATOM  =      8415.03548706
  ---------------------------------------------------
  free energy    TOTEN  =      -417.40951072 eV

  energy without entropy =     -417.40951072  energy(sigma->0) =     -417.40951072


--------------------------------------------------------------------------------------------------------




--------------------------------------- Iteration      1(  27)  ---------------------------------------


    POTLOK:  cpu time    3.0710: real time    3.0958
    SETDIJ:  cpu time    0.0645: real time    0.0647
    TRIAL :  cpu time    0.8765: real time    0.8853
    CORREC:  cpu time    3.4024: real time    3.4310
    EDDIAG:  cpu time    0.3246: real time    0.3283
    CHARGE:  cpu time    0.1162: real time    0.1174
    --------------------------------------------
      LOOP:  cpu time    7.9516: real time    8.0302

 eigenvalue-minimisations  :     0
 total energy-change (2. order) :-0.5465699E-07  (-0.2056376E-07)
 number of electron     216.0000000 magnetization 
 augmentation part       -0.4134314 magnetization 

 Free energy of the ion-electron system (eV)
  ---------------------------------------------------
  alpha Z        PSCENC =        59.93625244
  Ewald energy   TEWEN  =     30724.26977768
  -Hartree energ DENC   =    -37776.72395097
  -exchange      EXHF   =         0.00000000
  -V(xc)+E(xc)   XCENC  =       443.99036071
  PAW double counting   =    107007.82098712  -106714.33491187
  entropy T*S    EENTRO =        -0.00000000
  eigenvalues    EBANDS =     -2577.40351295
  atomic energy  EATOM  =      8415.03548706
  ---------------------------------------------------
  free energy    TOTEN  =      -417.40951077 eV

  energy without entropy =     -417.40951077  energy(sigma->0) =     -417.40951077


--------------------------------------------------------------------------------------------------------


  average scaling for gradient   0.8967


 average (electrostatic) potential at core
  the test charge radii are     0.5770  0.5955
  (the norm of the test charge is              1.0000)
       1 -85.6782       2 -85.6775       3 -85.6788       4 -85.6799       5 -85.6763
       6 -85.6760       7 -85.6787       8 -85.6770       9 -85.6772      10 -85.6783
[...]
      21 -85.6760      22 -85.6756      23 -85.6806      24 -85.6804      25 -85.6757
      26 -85.6761      27 -85.6774      28 -85.6787      29 -85.6759      30 -85.6758
      31 -85.6793      32 -85.6783      33 -85.6765      34 -85.6761      35 -85.6762
      36 -85.6765      37 -85.6774      38 -85.6778      39 -85.6778      40 -85.6777
      41 -85.6777      42 -85.6780      43 -85.6770      44 -85.6782      45 -85.6758
      46 -85.6762      47 -85.6762      48 -85.6759      49 -85.6777      50 -85.6771
      51 -89.5716      52-120.0891      53-120.0886
 
 
 
 E-fermi :  -4.0062     XC(G=0):  -2.7884     alpha+bet : -2.1113

 Fermi energy:        -4.0062258595

 k-point     1 :       0.0000    0.0000    0.0000
  band No.  band energies     occupation 
      1     -27.3007      2.00000
      2     -26.3072      2.00000
      3     -22.0919      2.00000
      4     -21.1552      2.00000
      5     -21.1543      2.00000
      6     -21.1541      2.00000
      7     -21.1533      2.00000
      8     -21.1532      2.00000
      9     -21.1531      2.00000
     10     -19.3160      2.00000
     11     -19.3159      2.00000
     12     -19.3156      2.00000
     13     -19.3150      2.00000
     14     -19.3147      2.00000
     15     -19.3145      2.00000
     16     -18.4209      2.00000
     17     -18.4207      2.00000
     18     -18.4204      2.00000
     19     -18.4200      2.00000
     20     -18.4195      2.00000
     21     -18.4192      2.00000
     22     -16.2601      2.00000
     23     -16.2598      2.00000
     24     -16.2589      2.00000
     25     -16.2588      2.00000
     26     -16.2583      2.00000
     27     -16.2583      2.00000
     28     -15.2812      2.00000
     29     -15.2812      2.00000
     30     -15.2804      2.00000
     31     -15.2802      2.00000
     32     -15.2797      2.00000
     33     -15.2796      2.00000
     34     -13.9323      2.00000
     35     -13.9322      2.00000
     36     -13.9316      2.00000
     37     -13.9314      2.00000
     38     -13.9314      2.00000
     39     -13.9312      2.00000
     40     -12.1436      2.00000
     41     -11.5563      2.00000
     42     -11.5560      2.00000
     43     -11.5556      2.00000
     44     -11.5555      2.00000
     45     -11.5545      2.00000
     46     -11.5542      2.00000
     47     -11.4634      2.00000
     48     -11.4634      2.00000
     49     -11.4628      2.00000
     50     -11.4627      2.00000
     51     -11.4623      2.00000
     52     -11.4622      2.00000
     53     -10.9859      2.00000
     54     -10.9236      2.00000
     55     -10.9231      2.00000
     56     -10.2490      2.00000
     57     -10.0933      2.00000
     58     -10.0932      2.00000
     59     -10.0917      2.00000
     60     -10.0913      2.00000
     61     -10.0911      2.00000
     62     -10.0910      2.00000
     63      -9.1327      2.00000
     64      -9.1324      2.00000
     65      -9.1323      2.00000
     66      -9.1310      2.00000
     67      -9.1302      2.00000
     68      -9.1302      2.00000
     69      -8.8288      2.00000
     70      -8.8285      2.00000
     71      -8.8280      2.00000
     72      -8.8278      2.00000
     73      -8.8274      2.00000
     74      -8.8272      2.00000
     75      -8.7696      2.00000
     76      -8.7694      2.00000
     77      -8.7689      2.00000
     78      -8.7688      2.00000
     79      -8.7685      2.00000
     80      -8.7677      2.00000
     81      -7.3866      2.00000
     82      -7.3862      2.00000
     83      -7.1799      2.00000
     84      -7.1784      2.00000
     85      -7.1782      2.00000
     86      -7.1777      2.00000
     87      -7.1767      2.00000
     88      -7.1766      2.00000
     89      -7.0018      2.00000
     90      -7.0013      2.00000
     91      -7.0012      2.00000
     92      -7.0009      2.00000
     93      -7.0008      2.00000
     94      -7.0007      2.00000
     95      -6.1047      2.00000
     96      -6.1043      2.00000
     97      -6.1039      2.00000
     98      -6.1035      2.00000
     99      -6.1034      2.00000
    100      -6.1032      2.00000
    101      -5.7002      2.00000
    102      -5.6980      2.00000
    103      -4.1202      2.00000
    104      -4.1200      2.00000
    105      -4.1195      2.00000
    106      -4.1194      2.00000
    107      -4.1184      2.00000
    108      -4.1182      2.00000
    109      -1.3200      0.00000
    110      -1.3197      0.00000
    111      -1.3190      0.00000
    112      -1.3188      0.00000
    113      -1.3184      0.00000
    114      -1.3181      0.00000
    115       0.0638      0.00000
    116       0.5289      0.00000
    117       0.5410      0.00000
    118       0.5414      0.00000
    119       0.5420      0.00000
    120       0.5423      0.00000
    121       0.5424      0.00000
    122       0.5442      0.00000
    123       1.1032      0.00000
    124       1.1624      0.00000
    125       1.3546      0.00000
    126       1.4106      0.00000
    127       1.4190      0.00000
    128       1.4768      0.00000
    129       1.4940      0.00000
    130       1.5005      0.00000
    131       1.7008      0.00000
    132       1.8317      0.00000
    133       2.0983      0.00000
    134       2.1150      0.00000
    135       2.2829      0.00000
    136       2.2869      0.00000


--------------------------------------------------------------------------------------------------------


 soft charge-density along one line, spin component           1
         0         1         2         3         4         5         6         7         8         9
 total charge-density along one line
 
 pseudopotential strength for first ion, spin component:           1
 12.708  21.385   0.000   0.000   0.000   0.000   0.000   0.000
 21.385  35.986   0.000   0.000   0.000   0.000   0.000   0.000
  0.000   0.000  -3.191  -0.000   0.000  -5.720  -0.000   0.000
  0.000   0.000  -0.000  -3.194  -0.000  -0.000  -5.723  -0.000
  0.000   0.000   0.000  -0.000  -3.191   0.000  -0.000  -5.720
  0.000   0.000  -5.720  -0.000   0.000 -10.228  -0.000   0.000
  0.000   0.000  -0.000  -5.723  -0.000  -0.000 -10.235  -0.000
  0.000   0.000   0.000  -0.000  -5.720   0.000  -0.000 -10.228
 total augmentation occupancy for first ion, spin component:           1
  7.653  -2.660  -0.000  -0.002  -0.000   0.000   0.001   0.000
 -2.660   0.962   0.000   0.001   0.000  -0.000  -0.000  -0.000
 -0.000   0.000   7.069  -0.008   0.000  -2.370   0.003  -0.000
 -0.002   0.001  -0.008   3.114  -0.000   0.003  -0.813   0.000
 -0.000   0.000   0.000  -0.000   7.068  -0.000   0.000  -2.370
  0.000  -0.000  -2.370   0.003  -0.000   0.809  -0.001   0.000
  0.001  -0.000   0.003  -0.813   0.000  -0.001   0.219  -0.000
  0.000  -0.000  -0.000   0.000  -2.370   0.000  -0.000   0.809


------------------------ aborting loop because EDIFF is reached ----------------------------------------


    FORLOC:  cpu time    0.0511: real time    0.0517
    FORNL :  cpu time    0.6802: real time    0.6838
    FORCOR:  cpu time    3.1455: real time    3.1784
    OFIELD:  cpu time    0.0014: real time    0.0014

 VOLUME and BASIS-vectors are now :
 -----------------------------------------------------------------------------
  energy-cutoff  :     1000.00
  volume of cell :     2631.08
      direct lattice vectors                 reciprocal lattice vectors
    12.325000000  0.000000000  0.000000000     0.081135903  0.046843835  0.000000000
    -6.162500000 10.673763102  0.000000000     0.000000000  0.093687670  0.000000000
     0.000000000  0.000000000 20.000000000     0.000000000  0.000000000  0.050000000

  length of vectors
    12.325000000 12.325000000 20.000000000     0.093687670  0.093687670  0.050000000


 FORCES acting on ions:
    Electron-Ion                     Ewald-Force                    Non-Local-Force
 -----------------------------------------------------------------------------------------------
   0.218E+01 0.189E+01 0.150E+02   -.218E+01 -.189E+01 -.150E+02   0.609E-02 -.782E-03 0.689E-02
   0.308E+01 0.153E+01 0.170E+02   -.309E+01 -.152E+01 -.170E+02   0.560E-02 -.362E-02 -.515E-02
   0.127E+01 0.345E+01 0.180E+02   -.128E+01 -.346E+01 -.180E+02   -.315E-03 0.138E-01 0.201E-02
   0.163E+01 0.236E+01 0.221E+02   -.163E+01 -.236E+01 -.221E+02   0.134E-01 0.159E-02 -.984E-02
   0.233E+01 0.564E+00 0.153E+02   -.233E+01 -.563E+00 -.153E+02   0.876E-03 -.642E-02 0.235E-02
   0.238E+01 -.495E+00 0.155E+02   -.239E+01 0.498E+00 -.155E+02   -.612E-02 0.284E-02 -.440E-02
   0.314E+01 0.117E+01 0.213E+02   -.315E+01 -.116E+01 -.213E+02   0.147E-01 -.203E-01 -.410E-02
   0.307E+01 -.109E+01 0.224E+02   -.308E+01 0.109E+01 -.224E+02   -.400E-02 -.718E-02 -.566E-02
   -.155E+01 0.316E+01 0.182E+02   0.155E+01 -.316E+01 -.182E+02   -.222E-02 -.107E-01 -.475E-02
   -.221E+01 0.187E+01 0.219E+02   0.222E+01 -.187E+01 -.219E+02   -.287E-01 0.169E-01 0.449E-02
   0.613E+00 -.629E+00 0.138E+02   -.610E+00 0.629E+00 -.138E+02   0.313E-02 -.269E-02 -.110E-02
   0.552E+00 -.465E+00 0.134E+02   -.550E+00 0.465E+00 -.134E+02   -.788E-02 0.376E-02 0.502E-02
   0.116E+01 -.255E+01 0.238E+02   -.117E+01 0.255E+01 -.238E+02   0.294E-01 -.987E-02 -.560E-03
   0.692E+00 -.351E+01 0.193E+02   -.698E+00 0.351E+01 -.193E+02   0.580E-02 0.459E-02 -.161E-01
   -.213E+01 0.130E+01 0.148E+02   0.213E+01 -.130E+01 -.148E+02   0.712E-02 -.355E-02 0.569E-02
   -.283E+01 0.839E+00 0.156E+02   0.283E+01 -.840E+00 -.156E+02   -.330E-02 0.636E-02 -.607E-02
   -.392E+00 -.154E+00 0.129E+02   0.397E+00 0.151E+00 -.129E+02   -.153E-02 0.818E-03 0.183E-02
   0.173E+00 0.134E+01 0.132E+02   -.172E+00 -.134E+01 -.132E+02   -.376E-02 0.224E-02 0.932E-02
   -.548E+00 -.336E+01 0.169E+02   0.546E+00 0.337E+01 -.169E+02   0.735E-02 -.310E-02 0.101E-02
   -.307E+00 -.199E+01 0.142E+02   0.303E+00 0.199E+01 -.142E+02   0.114E-02 -.208E-02 -.822E-03
   0.309E+01 -.136E+01 0.179E+02   -.309E+01 0.136E+01 -.179E+02   0.345E-04 -.357E-02 -.183E-01
   0.213E+01 -.174E+01 0.162E+02   -.213E+01 0.174E+01 -.162E+02   -.643E-02 0.505E-02 -.416E-02
   -.572E+00 0.106E+01 0.248E+02   0.570E+00 -.106E+01 -.248E+02   -.112E-01 0.115E-01 0.649E-02
   -.768E+00 -.166E+01 0.246E+02   0.769E+00 0.166E+01 -.245E+02   0.128E-01 -.163E-01 -.529E-02
   0.115E+01 -.439E+00 0.139E+02   -.115E+01 0.437E+00 -.139E+02   0.301E-02 -.237E-02 -.452E-02
   0.286E+00 0.100E+01 0.139E+02   -.284E+00 -.100E+01 -.139E+02   -.622E-02 0.412E-02 0.449E-02
   -.349E+01 0.467E+00 0.190E+02   0.350E+01 -.471E+00 -.190E+02   0.903E-02 0.907E-02 -.178E-02
   -.334E+01 -.133E+01 0.182E+02   0.335E+01 0.132E+01 -.182E+02   -.111E-01 0.969E-02 0.259E-02
   0.124E+01 -.248E+01 0.165E+02   -.124E+01 0.248E+01 -.165E+02   0.597E-02 0.147E-02 -.830E-02
   0.105E+00 -.108E+01 0.144E+02   -.108E+00 0.108E+01 -.144E+02   -.425E-02 0.230E-02 -.357E-02
   -.241E+01 -.249E+01 0.201E+02   0.241E+01 0.249E+01 -.201E+02   -.135E-01 -.906E-02 -.884E-02
   -.171E+01 -.319E+01 0.171E+02   0.171E+01 0.319E+01 -.171E+02   0.658E-03 -.295E-02 0.401E-02
   0.150E+00 0.622E+00 0.133E+02   -.151E+00 -.622E+00 -.133E+02   0.606E-02 -.507E-02 0.640E-02
   0.390E+00 0.595E+00 0.137E+02   -.393E+00 -.594E+00 -.137E+02   -.188E-02 0.434E-02 -.199E-02
   -.148E+01 0.254E+00 0.142E+02   0.148E+01 -.255E+00 -.142E+02   0.375E-02 -.216E-02 0.483E-02
   -.131E+01 -.574E+00 0.141E+02   0.131E+01 0.573E+00 -.141E+02   -.527E-02 0.290E-02 0.301E-02
   -.252E+01 -.132E+01 0.150E+02   0.252E+01 0.132E+01 -.150E+02   -.303E-02 0.117E-02 0.363E-02
   -.164E+01 -.131E+01 0.139E+02   0.164E+01 0.131E+01 -.139E+02   -.512E-02 0.131E-02 0.934E-02
   -.149E+01 -.190E+01 0.143E+02   0.149E+01 0.190E+01 -.144E+02   -.385E-02 -.347E-03 0.566E-02
   -.226E+00 -.505E+00 0.134E+02   0.226E+00 0.505E+00 -.134E+02   0.213E-02 0.204E-03 0.780E-02
   0.559E+00 0.140E+01 0.135E+02   -.560E+00 -.140E+01 -.135E+02   -.420E-02 0.254E-02 0.746E-02
   0.170E+01 0.264E+01 0.152E+02   -.170E+01 -.264E+01 -.152E+02   0.403E-03 0.378E-04 0.901E-02
   0.166E+00 0.234E+01 0.141E+02   -.161E+00 -.234E+01 -.141E+02   -.143E-02 0.216E-02 0.208E-02
   -.411E-01 0.352E+01 0.168E+02   0.440E-01 -.352E+01 -.168E+02   -.954E-02 0.355E-02 0.614E-02
   -.443E+00 0.840E+00 0.142E+02   0.445E+00 -.842E+00 -.142E+02   0.370E-02 -.267E-02 0.832E-04
   -.168E+01 0.206E+01 0.155E+02   0.168E+01 -.206E+01 -.155E+02   -.756E-02 0.123E-02 -.273E-02
   -.411E+00 -.101E+01 0.139E+02   0.409E+00 0.101E+01 -.139E+02   0.728E-02 -.173E-02 0.495E-02
   -.910E+00 0.333E+00 0.133E+02   0.907E+00 -.332E+00 -.133E+02   -.304E-02 0.314E-02 -.399E-02
   0.983E-01 -.628E+00 0.133E+02   -.995E-01 0.629E+00 -.133E+02   0.497E-02 -.347E-02 0.587E-02
   0.995E+00 0.709E+00 0.133E+02   -.999E+00 -.707E+00 -.133E+02   0.107E-02 0.142E-02 0.326E-02
   0.861E-02 0.151E-01 -.203E+03   -.118E-01 -.120E-01 0.203E+03   -.303E-02 0.202E-02 -.506E-02
   -.229E+03 0.156E+03 -.316E+03   0.279E+03 -.190E+03 0.320E+03   -.512E+02 0.348E+02 -.344E+01
   0.229E+03 -.156E+03 -.297E+03   -.279E+03 0.190E+03 0.293E+03   0.512E+02 -.348E+02 0.308E+01
 -----------------------------------------------------------------------------------------------
   -.641E-02 0.132E-01 0.355E+00   0.000E+00 0.284E-13 0.114E-12   0.636E-02 -.132E-01 -.356E+00
 
 
 POSITION                                       TOTAL-FORCE (eV/Angst)
 -----------------------------------------------------------------------------------
     11.98348      0.00342      0.01417         0.003072     -0.001568     -0.000883
     -0.34154      1.42665      0.01100        -0.001153     -0.000057     -0.003066
      2.12355      0.00315      0.01249        -0.001640      0.010193     -0.005862
      2.12326      1.42653      0.00641         0.012869      0.001050     -0.007358
     10.75099      2.13819      0.01213         0.000197     -0.005480     -0.000018
     -1.57382      3.56123      0.01110        -0.008780      0.004843     -0.001329
      0.89078      2.13854      0.00548         0.009028     -0.018743      0.002917
      0.89099      3.56147      0.00181        -0.012450     -0.002093      0.012072
      4.58864      0.00346      0.01135         0.003970     -0.016331     -0.003134
      4.58894      1.42623      0.00646        -0.022898      0.012849      0.014307
      9.51854      4.27281      0.01369         0.006679     -0.003161      0.000260
     -2.80632      5.69591      0.01434        -0.006393      0.003343      0.000741
      2.12300      4.27302      0.00000         0.024411     -0.004586      0.020767
      2.12335      5.69594      0.00581        -0.000873      0.009639     -0.002273
      7.05344      0.00333      0.01399         0.009260     -0.005241     -0.000352
      7.05353      1.42635      0.01368        -0.001452      0.004732     -0.003485
      8.28610      6.40752      0.01601         0.003173     -0.001543     -0.000677
     -4.03885      7.83070      0.01636        -0.002085      0.000840     -0.000060
      3.35586      6.40753      0.01007         0.005214      0.000621     -0.001138
      3.35599      7.83072      0.01320        -0.003357      0.000240     -0.000528
     -0.34146      4.27290      0.00723        -0.002145     -0.001224     -0.004185
     -0.34138      5.69591      0.00946        -0.009083      0.006416     -0.001023
      3.35624      2.13791      0.00222        -0.013242      0.011663      0.016785
      3.35573      3.56155      0.00139         0.013404     -0.015480      0.009327
     -1.57395      6.40758      0.01311         0.005569     -0.004015     -0.000498
     -1.57385      7.83068      0.01438        -0.004690      0.003695      0.000060
      5.82093      2.13784      0.01033         0.016611      0.004999     -0.002556
      5.82114      3.56097      0.01156        -0.005926      0.008290     -0.003292
      0.89092      6.40755      0.00907         0.004297      0.002322     -0.002093
      0.89106      7.83068      0.01235        -0.006910      0.003786      0.000433
      4.58871      4.27293      0.00850        -0.012418     -0.006256     -0.010036
      4.58852      5.69606      0.01149         0.001906     -0.000672     -0.003681
      9.51845      0.00337      0.01490         0.004630     -0.004613      0.000177
      9.51855      1.42644      0.01438        -0.005141      0.005512     -0.000201
      8.28593      2.13803      0.01453         0.006636     -0.003447      0.000648
      8.28613      3.56115      0.01464        -0.004160      0.002090      0.000024
      7.05356      4.27269      0.01457         0.003025     -0.001068     -0.000430
      7.05362      5.69588      0.01553        -0.002379      0.001489     -0.000049
      5.82112      6.40755      0.01489        -0.002707      0.001681      0.000093
      5.82102      7.83073      0.01579         0.002642      0.000368     -0.000230
      7.05363      8.54227      0.01631        -0.004592      0.001085      0.001176
     -5.27149      9.96549      0.01495        -0.000155     -0.002196     -0.001942
     -2.80638      8.54234      0.01558         0.003330     -0.001652     -0.000997
     -2.80627      9.96553      0.01362        -0.006416     -0.000283     -0.003539
     -0.34149      8.54239      0.01378         0.005827     -0.004831      0.000309
     -0.34138      9.96550      0.01354        -0.005646     -0.000160     -0.001041
      2.12343      8.54232      0.01336         0.005718     -0.001504      0.000730
      2.12354      9.96544      0.01469        -0.005317      0.003873     -0.001733
      4.58846      8.54235      0.01505         0.003615     -0.002785      0.001032
      4.58853      9.96550      0.01517        -0.003031      0.003368      0.000242
      3.04930      2.68154      6.29961        -0.006111      0.005016      0.026899
      4.02070      2.02068      6.36403        -0.553067      0.375902     -0.055685
      2.07767      3.34267      6.24015         0.559132     -0.380915      0.014376
 -----------------------------------------------------------------------------------
    total drift:                               -0.000049      0.000072     -0.001030


--------------------------------------------------------------------------------------------------------



  FREE ENERGIE OF THE ION-ELECTRON SYSTEM (eV)
  ---------------------------------------------------
  free  energy   TOTEN  =      -417.40951077 eV

  energy  without entropy=     -417.40951077  energy(sigma->0) =     -417.40951077
 


--------------------------------------------------------------------------------------------------------


    POTLOK:  cpu time    3.1213: real time    3.1468


--------------------------------------------------------------------------------------------------------


 writing wavefunctions
     LOOP+:  cpu time  209.9672: real time  212.4156
    4ORBIT:  cpu time    0.0000: real time    0.0000

 total amount of memory used by VASP MPI-rank0    85439. kBytes
=======================================================================

   base      :      30000. kBytes
   nonl-proj :       6586. kBytes
   fftplans  :      14299. kBytes
   grid      :      23511. kBytes
   one-center:          6. kBytes
   wavefun   :      11037. kBytes
 
  
  
 General timing and accounting informations for this job:
 ========================================================
  
                  Total CPU time used (sec):      242.876
                            User time (sec):      224.612
                          System time (sec):       18.264
                         Elapsed time (sec):      247.062
  
                   Maximum memory used (kb):      677940.
                   Average memory used (kb):          N/A
  
                          Minor page faults:       394619
                          Major page faults:           71
                 Voluntary context switches:         3707
