 vasp.6.2.1 16May21 (build Nov 06 2021 14:46:37) complex                        
  
 executed on             LinuxIFC date 2025.03.03  21:00:23
 running on  112 total cores
 distrk:  each k-point on   56 cores,    2 groups
 distr:  one band on NCORE=   1 cores,   56 groups


--------------------------------------------------------------------------------------------------------


 INCAR:
   ALGO = Conjugate
   KPAR = 2
   NCORE = 32
   ISMEAR = 0
   SIGMA = 0.01
   PREC = Accurate
   EDIFF = 1E-7
   ENCUT = 1000
   ISIF = 0
   METAGGA = SCAN
   LASPH = .TRUE.
   SYMPREC = 1E-7

 POTCAR:    PAW_PBE C_h 06Feb2004                 
 POTCAR:    PAW_PBE O_h 06Feb2004                 
 -----------------------------------------------------------------------------
|                                                                             |
|           W    W    AA    RRRRR   N    N  II  N    N   GGGG   !!!           |
|           W    W   A  A   R    R  NN   N  II  NN   N  G    G  !!!           |
|           W    W  A    A  R    R  N N  N  II  N N  N  G       !!!           |
|           W WW W  AAAAAA  RRRRR   N  N N  II  N  N N  G  GGG   !            |
|           WW  WW  A    A  R   R   N   NN  II  N   NN  G    G                |
|           W    W  A    A  R    R  N    N  II  N    N   GGGG   !!!           |
|                                                                             |
|     The value NCORE = 32 specified in the INCAR file was overwritten,       |
|     because it was not compatible with the 56 processes available:          |
|     NCORE = 1                                                               |
|     was used instead, please check that this makes sense for your           |
|     machine.                                                                |
|                                                                             |
 -----------------------------------------------------------------------------

 -----------------------------------------------------------------------------
|                                                                             |
|           W    W    AA    RRRRR   N    N  II  N    N   GGGG   !!!           |
|           W    W   A  A   R    R  NN   N  II  NN   N  G    G  !!!           |
|           W    W  A    A  R    R  N N  N  II  N N  N  G       !!!           |
|           W WW W  AAAAAA  RRRRR   N  N N  II  N  N N  G  GGG   !            |
|           WW  WW  A    A  R   R   N   NN  II  N   NN  G    G                |
|           W    W  A    A  R    R  N    N  II  N    N   GGGG   !!!           |
|                                                                             |
|     For optimal performance we recommend to set                             |
|       NCORE = 2 up to number-of-cores-per-socket                            |
|     NCORE specifies how many cores store one orbital (NPAR=cpu/NCORE).      |
|     This setting can greatly improve the performance of VASP for DFT.       |
|     The default, NCORE=1 might be grossly inefficient on modern             |
|     multi-core architectures or massively parallel machines. Do your        |
|     own testing! More info at https://www.vasp.at/wiki/index.php/NCORE      |
|     Unfortunately you need to use the default for GW and RPA                |
|     calculations (for HF NCORE is supported but not extensively tested      |
|     yet).                                                                   |
|                                                                             |
 -----------------------------------------------------------------------------

 POTCAR:    PAW_PBE C_h 06Feb2004                 
   VRHFIN =C: s2p2                                                                                  
   LEXCH  = PE                                                                                      
   EATOM  =   147.1560 eV,   10.8157 Ry                                                             
                                                                                                    
   TITEL  = PAW_PBE C_h 06Feb2004                                                                   
   LULTRA =        F    use ultrasoft PP ?                                                          
   IUNSCR =        1    unscreen: 0-lin 1-nonlin 2-no                                               
   RPACOR =    0.800    partial core radius                                                         
   POMASS =   12.011; ZVAL   =    4.000    mass and valenz                                          
   RCORE  =    1.100    outmost cutoff radius                                                       
   RWIGS  =    1.630; RWIGS  =    0.863    wigner-seitz radius (au A)                               
   ENMAX  =  700.000; ENMIN  =  500.000 eV                                                          
   ICORE  =        2    local potential                                                             
   LCOR   =        T    correct aug charges                                                         
   LPAW   =        T    paw PP                                                                      
   EAUG   =  946.768                                                                                
   DEXC   =    0.000                                                                                
   RMAX   =    1.128    core radius for proj-oper                                                   
   RAUG   =    1.300    factor for augmentation sphere                                              
   RDEP   =    1.162    radius for radial grids                                                     
   RDEPT  =    1.088    core radius for aug-charge                                                  
                                                                                                    
   Atomic configuration                                                                             
    4 entries                                                                                       
     n  l   j            E        occ.                                                              
     1  0  0.50      -273.3789   2.0000                                                             
     2  0  0.50       -13.7508   2.0000                                                             
     2  1  0.50        -5.2854   2.0000                                                             
     3  2  1.50        -5.4423   0.0000                                                             
   Description                                                                                      
     l       E           TYP  RCUT    TYP  RCUT                                                     
     0    -13.7508458     23  1.100                                                                 
     0     -8.2022199     23  1.100                                                                 
     1     -5.2854383     23  1.100                                                                 
     1      1.1560700     23  1.100                                                                 
     2     -5.4423304      7  1.100                                                                 
  local pseudopotential read in
  partial core-charges read in
  partial kinetic energy density read in
  atomic valenz-charges read in
  non local Contribution for L=           0  read in
    real space projection operators read in
  non local Contribution for L=           0  read in
    real space projection operators read in
  non local Contribution for L=           1  read in
    real space projection operators read in
  non local Contribution for L=           1  read in
    real space projection operators read in
    PAW grid and wavefunctions read in
 
   number of l-projection  operators is LMAX  =           4
   number of lm-projection operators is LMMAX =           8
 
 POTCAR:    PAW_PBE O_h 06Feb2004                 
   VRHFIN =O: s2p4                                                                                  
   LEXCH  = PE                                                                                      
   EATOM  =   432.3788 eV,   31.7789 Ry                                                             
                                                                                                    
   TITEL  = PAW_PBE O_h 06Feb2004                                                                   
   LULTRA =        F    use ultrasoft PP ?                                                          
   IUNSCR =        1    unscreen: 0-lin 1-nonlin 2-no                                               
   RPACOR =    0.800    partial core radius                                                         
   POMASS =   16.000; ZVAL   =    6.000    mass and valenz                                          
   RCORE  =    1.100    outmost cutoff radius                                                       
   RWIGS  =    1.400; RWIGS  =    0.741    wigner-seitz radius (au A)                               
   ENMAX  =  700.000; ENMIN  =  500.000 eV                                                          
   ICORE  =        2    local potential                                                             
   LCOR   =        T    correct aug charges                                                         
   LPAW   =        T    paw PP                                                                      
   EAUG   =  888.804                                                                                
   DEXC   =    0.000                                                                                
   RMAX   =    1.128    core radius for proj-oper                                                   
   RAUG   =    1.300    factor for augmentation sphere                                              
   RDEP   =    1.125    radius for radial grids                                                     
   RDEPT  =    1.088    core radius for aug-charge                                                  
                                                                                                    
   Atomic configuration                                                                             
    4 entries                                                                                       
     n  l   j            E        occ.                                                              
     1  0  0.50      -514.6923   2.0000                                                             
     2  0  0.50       -23.9615   2.0000                                                             
     2  1  0.50        -9.0305   4.0000                                                             
     3  2  1.50        -9.5241   0.0000                                                             
   Description                                                                                      
     l       E           TYP  RCUT    TYP  RCUT                                                     
     0    -23.9615319     23  1.100                                                                 
     0    -25.3221145     23  1.100                                                                 
     1     -9.0304911     23  1.100                                                                 
     1     -5.4802209     23  1.100                                                                 
     2     -9.5240782      7  1.100                                                                 
  local pseudopotential read in
  partial core-charges read in
  partial kinetic energy density read in
  atomic valenz-charges read in
  non local Contribution for L=           0  read in
    real space projection operators read in
  non local Contribution for L=           0  read in
    real space projection operators read in
  non local Contribution for L=           1  read in
    real space projection operators read in
  non local Contribution for L=           1  read in
    real space projection operators read in
    PAW grid and wavefunctions read in
 
   number of l-projection  operators is LMAX  =           4
   number of lm-projection operators is LMMAX =           8
 
 -----------------------------------------------------------------------------
|                                                                             |
|               ----> ADVICE to this user running VASP <----                  |
|                                                                             |
|     You have a (more or less) 'large supercell' and for larger cells it     |
|     might be more efficient to use real-space projection operators.         |
|     Therefore, try LREAL= Auto in the INCAR file.                           |
|     Mind: For very accurate calculation, you might also keep the            |
|     reciprocal projection scheme (i.e. LREAL=.FALSE.).                      |
|                                                                             |
 -----------------------------------------------------------------------------

  PAW_PBE C_h 06Feb2004                 :
 energy of atom  1       EATOM= -147.1560
 kinetic energy error for atom=    0.0031 (will be added to EATOM!!)
  PAW_PBE O_h 06Feb2004                 :
 energy of atom  2       EATOM= -432.3788
 kinetic energy error for atom=    0.0171 (will be added to EATOM!!)
 
 
 POSCAR:  C  O
  positions in cartesian coordinates
  No initial velocities read in

 METAGGA = SCAN     LMAXTAU =  6    LMIXTAU =  F

 exchange correlation table for  LEXCH =        8
   RHO(1)=    0.500       N(1)  =     2000
   RHO(2)=  100.500       N(2)  =     4000
 


--------------------------------------------------------------------------------------------------------


 ion  position               nearest neighbor table
   1  0.972  0.000  0.001-  50 1.42   2 1.42  42 1.42
   2  0.039  0.134  0.001-   5 1.42   7 1.42   1 1.42
   3  0.172  0.000  0.001-  42 1.42  44 1.42   4 1.42
   4  0.239  0.134  0.000-   7 1.42   3 1.42  23 1.42
   5  0.972  0.200  0.001-   6 1.42   2 1.42  34 1.42
   6  0.039  0.334  0.001-   5 1.42  21 1.42  11 1.42
   7  0.172  0.200  0.000-   8 1.42   2 1.42   4 1.42
   8  0.239  0.334  0.000-  13 1.42   7 1.42  21 1.42
   9  0.372  0.000  0.001-  10 1.42  44 1.42  46 1.42
  10  0.439  0.134  0.000-  27 1.42   9 1.42  23 1.42
  11  0.972  0.400  0.001-  12 1.42  36 1.42   6 1.42
  12  0.039  0.534  0.001-  25 1.42  11 1.42  17 1.42
  13  0.372  0.400  0.000-   8 1.42  14 1.42  24 1.42
  14  0.439  0.534  0.000-  13 1.42  29 1.42  19 1.42
  15  0.572  0.000  0.001-  46 1.42  16 1.42  48 1.42
  16  0.639  0.134  0.001-  15 1.42  35 1.42  27 1.42
  17  0.972  0.600  0.001-  38 1.42  18 1.42  12 1.42
  18  0.039  0.734  0.001-  43 1.42  41 1.42  17 1.42
  19  0.572  0.600  0.001-  14 1.42  20 1.42  32 1.42
  20  0.639  0.734  0.001-  49 1.42  19 1.42  47 1.42
  21  0.172  0.400  0.000-  22 1.42   8 1.42   6 1.42
  22  0.239  0.534  0.000-  21 1.42  29 1.42  25 1.42
  23  0.372  0.200  0.000-  10 1.42   4 1.42  24 1.42
  24  0.439  0.334  0.000-  13 1.42  31 1.42  23 1.42
  25  0.172  0.600  0.001-  26 1.42  12 1.42  22 1.42
  26  0.239  0.734  0.001-  25 1.42  45 1.42  43 1.42
  27  0.572  0.200  0.001-  10 1.42  28 1.42  16 1.42
  28  0.639  0.334  0.001-  27 1.42  37 1.42  31 1.42
  29  0.372  0.600  0.000-  22 1.42  14 1.42  30 1.42
  30  0.439  0.734  0.001-  47 1.42  29 1.42  45 1.42
  31  0.572  0.400  0.000-  32 1.42  28 1.42  24 1.42
  32  0.639  0.534  0.001-  31 1.42  39 1.42  19 1.42
  33  0.772  0.000  0.001-  34 1.42  48 1.42  50 1.42
  34  0.839  0.134  0.001-  33 1.42   5 1.42  35 1.42
  35  0.772  0.200  0.001-  36 1.42  16 1.42  34 1.42
  36  0.839  0.334  0.001-  35 1.42  11 1.42  37 1.42
  37  0.772  0.400  0.001-  28 1.42  38 1.42  36 1.42
  38  0.839  0.534  0.001-  17 1.42  37 1.42  39 1.42
  39  0.772  0.600  0.001-  40 1.42  38 1.42  32 1.42
  40  0.839  0.734  0.001-  39 1.42  49 1.42  41 1.42
  41  0.972  0.800  0.001-  18 1.42  42 1.42  40 1.42
  42  0.039  0.934  0.001-   3 1.42  41 1.42   1 1.42
  43  0.172  0.800  0.001-  18 1.42  44 1.42  26 1.42
  44  0.239  0.934  0.001-   9 1.42  43 1.42   3 1.42
  45  0.372  0.800  0.001-  26 1.42  46 1.42  30 1.42
  46  0.439  0.934  0.001-  15 1.42  45 1.42   9 1.42
  47  0.572  0.800  0.001-  30 1.42  48 1.42  20 1.42
  48  0.639  0.934  0.001-  47 1.42  33 1.42  15 1.42
  49  0.772  0.800  0.001-  50 1.42  20 1.42  40 1.42
  50  0.839  0.934  0.001-  49 1.42   1 1.42  33 1.42
  51  0.373  0.251  0.354-  52 1.18  53 1.18
  52  0.421  0.189  0.357-  51 1.18
  53  0.325  0.313  0.351-  51 1.18
 
  LATTYP: Found a hexagonal cell.
 ALAT       =    12.3250000000
 C/A-ratio  =     1.6227180527
  
  Lattice vectors:
  
 A1 = (  12.3250000000,   0.0000000000,   0.0000000000)
 A2 = (  -6.1625000000,  10.6737631016,   0.0000000000)
 A3 = (   0.0000000000,   0.0000000000,  20.0000000000)


Analysis of symmetry for initial positions (statically):
=====================================================================
 Subroutine PRICEL returns:
 Original cell was already a primitive cell.
 

 Routine SETGRP: Setting up the symmetry group for a 
 hexagonal supercell.


 Subroutine GETGRP returns: Found  1 space group operations
 (whereof  1 operations were pure point group operations)
 out of a pool of 24 trial point group operations.


The static configuration has the point symmetry C_1 .


Analysis of symmetry for dynamics (positions and initial velocities):
=====================================================================
 Subroutine PRICEL returns:
 Original cell was already a primitive cell.
 

 Routine SETGRP: Setting up the symmetry group for a 
 hexagonal supercell.


 Subroutine GETGRP returns: Found  1 space group operations
 (whereof  1 operations were pure point group operations)
 out of a pool of 24 trial point group operations.


The dynamic configuration has the point symmetry C_1 .


 Subroutine INISYM returns: Found  1 space group operations
 (whereof  1 operations are pure point group operations),
 and found     1 'primitive' translations


----------------------------------------------------------------------------------------

                                     Primitive cell                                     

  volume of cell :    2631.0826

  direct lattice vectors                    reciprocal lattice vectors
    12.325000000  0.000000000  0.000000000     0.081135903  0.046843835  0.000000000
    -6.162500000 10.673763102  0.000000000     0.000000000  0.093687670  0.000000000
     0.000000000  0.000000000 20.000000000     0.000000000  0.000000000  0.050000000

  length of vectors
    12.325000000 12.325000000 20.000000000     0.093687670  0.093687670  0.050000000

  position of ions in fractional coordinates (direct lattice)
     0.972450841  0.000320818  0.000708389
     0.039118382  0.133659505  0.000550216
     0.172443627  0.000295449  0.000624535
     0.239096278  0.133647917  0.000320585
     0.972452058  0.200322012  0.000606523
     0.039128360  0.333643771  0.000555187
     0.172451764  0.200354552  0.000273959
     0.239124359  0.333665720  0.000090325
     0.372465565  0.000324403  0.000567391
     0.439137473  0.133619939  0.000322923
     0.972449824  0.400309362  0.000684513
     0.039124981  0.533636789  0.000716763
     0.372416176  0.400329481  0.000000000
     0.439099602  0.533638981  0.000290518
     0.572443676  0.000312125  0.000699475
     0.639110207  0.133631751  0.000684093
     0.972452703  0.600305653  0.000800361
     0.039124495  0.733640359  0.000818141
     0.572433471  0.600306242  0.000503618
     0.639111888  0.733641879  0.000659881
     0.172454630  0.400318228  0.000361306
     0.239120185  0.533636548  0.000473136
     0.372459750  0.200295993  0.000111246
     0.439107096  0.333673419  0.000069702
     0.172452155  0.600311506  0.000655425
     0.239123371  0.733638574  0.000718912
     0.572431082  0.200289171  0.000516621
     0.639112773  0.333618630  0.000577970
     0.372439808  0.600308022  0.000453556
     0.439116090  0.733637858  0.000617737
     0.572469358  0.400320504  0.000424897
     0.639119408  0.533650873  0.000574513
     0.772445723  0.000315427  0.000745201
     0.839116277  0.133640203  0.000719132
     0.772440513  0.200307432  0.000726291
     0.839120241  0.333635728  0.000731834
     0.772446320  0.400298367  0.000728722
     0.839118980  0.533633964  0.000776376
     0.772456143  0.600308173  0.000744639
     0.839115033  0.733643180  0.000789390
     0.972455313  0.800305582  0.000815291
     0.039114714  0.933643289  0.000747563
     0.172457971  0.800312211  0.000779216
     0.239134551  0.933647193  0.000681063
     0.372451396  0.800316674  0.000689249
     0.439124489  0.933644769  0.000676788
     0.572441101  0.800310054  0.000668168
     0.639115067  0.933638985  0.000734556
     0.772445098  0.800313187  0.000752577
     0.839116614  0.933644338  0.000758538
     0.373021009  0.251226878  0.353553390
     0.420879805  0.189313152  0.356774483
     0.325156981  0.313167186  0.350580647

  ion indices of the primitive-cell ions
   primitive index   ion index
                 1           1
                 2           2
                 3           3
                 4           4
                 5           5
                 6           6
                 7           7
                 8           8
                 9           9
                10          10
                11          11
                12          12
                13          13
                14          14
                15          15
                16          16
                17          17
                18          18
                19          19
                20          20
                21          21
                22          22
                23          23
                24          24
                25          25
                26          26
                27          27
                28          28
                29          29
                30          30
                31          31
                32          32
                33          33
                34          34
                35          35
                36          36
                37          37
                38          38
                39          39
                40          40
                41          41
                42          42
                43          43
                44          44
                45          45
                46          46
                47          47
                48          48
                49          49
                50          50
                51          51
                52          52
                53          53

----------------------------------------------------------------------------------------

 
 
 KPOINTS: auto                                    

Automatic generation of k-mesh.
 Grid dimensions read from file:
 generate k-points for:    1    1    1

 Generating k-lattice:

  Cartesian coordinates                     Fractional coordinates (reciprocal lattice)
     0.081135903  0.046843835  0.000000000     1.000000000 -0.000000000  0.000000000
     0.000000000  0.093687670  0.000000000     0.000000000  1.000000000  0.000000000
     0.000000000  0.000000000  0.050000000     0.000000000  0.000000000  1.000000000

  Length of vectors
     0.093687670  0.093687670  0.050000000

  Shift w.r.t. Gamma in fractional coordinates (k-lattice)
     0.000000000  0.000000000  0.000000000

 
 Subroutine IBZKPT returns following result:
 ===========================================
 
 Found      1 irreducible k-points:
 
 Following reciprocal coordinates:
            Coordinates               Weight
  0.000000  0.000000  0.000000      1.000000
 
 Following cartesian coordinates:
            Coordinates               Weight
  0.000000  0.000000  0.000000      1.000000
 


--------------------------------------------------------------------------------------------------------




 Dimension of arrays:
   k-points           NKPTS =      1   k-points in BZ     NKDIM =      1   number of bands    NBANDS=    168
   number of dos      NEDOS =    301   number of ions     NIONS =     53
   non local maximal  LDIM  =      4   non local SUM 2l+1 LMDIM =      8
   total plane-waves  NPLWV = ******
   max r-space proj   IRMAX =      1   max aug-charges    IRDMAX=   9736
   dimension x,y,z NGX =   128 NGY =  128 NGZ =  210
   dimension x,y,z NGXF=   256 NGYF=  256 NGZF=  420
   support grid    NGXF=   256 NGYF=  256 NGZF=  420
   ions per type =              51   2
   NGX,Y,Z   is equivalent  to a cutoff of  17.27, 17.27, 17.46 a.u.
   NGXF,Y,Z  is equivalent  to a cutoff of  34.53, 34.53, 34.91 a.u.

 SYSTEM =  unknown system                          
 POSCAR =   C  O                                   

 Startparameter for this run:
   NWRITE =      2    write-flag & timer
   PREC   = accura    normal or accurate (medium, high low for compatibility)
   ISTART =      0    job   : 0-new  1-cont  2-samecut
   ICHARG =      2    charge: 1-file 2-atom 10-const
   ISPIN  =      1    spin polarized calculation?
   LNONCOLLINEAR =      F non collinear calculations
   LSORBIT =      F    spin-orbit coupling
   INIWAV =      1    electr: 0-lowe 1-rand  2-diag
   LASPH  =      T    aspherical Exc in radial PAW
 Electronic Relaxation 1
   ENCUT  = 1000.0 eV  73.50 Ry    8.57 a.u.  31.78 31.78 51.57*2*pi/ulx,y,z
   ENINI  = 1000.0     initial cutoff
   ENAUG  =  946.8 eV  augmentation charge cutoff
   NELM   =     60;   NELMIN=  2; NELMDL= -5     # of ELM steps 
   EDIFF  = 0.1E-06   stopping-criterion for ELM
   LREAL  =      F    real-space projection
   NLSPLINE    = F    spline interpolate recip. space projectors
   LCOMPAT=      F    compatible to vasp.4.4
   GGA_COMPAT  = T    GGA compatible to vasp.4.4-vasp.4.6
   LMAXPAW     = -100 max onsite density
   LMAXMIX     =    2 max onsite mixed and CHGCAR
   VOSKOWN=      0    Vosko Wilk Nusair interpolation
   ROPT   =    0.00000   0.00000
 Ionic relaxation
   EDIFFG = 0.1E-05   stopping-criterion for IOM
   NSW    =      0    number of steps for IOM
   NBLOCK =      1;   KBLOCK =      1    inner block; outer block 
   IBRION =     -1    ionic relax: 0-MD 1-quasi-New 2-CG
   NFREE  =      0    steps in history (QN), initial steepest desc. (CG)
   ISIF   =      0    stress and relaxation
   IWAVPR =     10    prediction:  0-non 1-charg 2-wave 3-comb
   ISYM   =      2    0-nonsym 1-usesym 2-fastsym
   LCORR  =      T    Harris-Foulkes like correction to forces

   POTIM  = 0.5000    time-step for ionic-motion
   TEIN   =    0.0    initial temperature
   TEBEG  =    0.0;   TEEND  =   0.0 temperature during run
   SMASS  =  -3.00    Nose mass-parameter (am)
   estimated Nose-frequenzy (Omega)   =  0.10E-29 period in steps = 0.13E+47 mass=  -0.347E-26a.u.
   SCALEE = 1.0000    scale energy and forces
   NPACO  =    256;   APACO  = 16.0  distance and # of slots for P.C.
   PSTRESS=    0.0 pullay stress

  Mass of Ions in am
   POMASS =  12.01 16.00
  Ionic Valenz
   ZVAL   =   4.00  6.00
  Atomic Wigner-Seitz radii
   RWIGS  =  -1.00 -1.00
  virtual crystal weights 
   VCA    =   1.00  1.00
   NELECT =     216.0000    total number of electrons
   NUPDOWN=      -1.0000    fix difference up-down

 DOS related values:
   EMIN   =  10.00;   EMAX   =-10.00  energy-range for DOS
   EFERMI =   0.00
   ISMEAR =     0;   SIGMA  =   0.01  broadening in eV -4-tet -1-fermi 0-gaus

 Electronic relaxation 2 (details)
   IALGO  =     58    algorithm
   LDIAG  =      T    sub-space diagonalisation (order eigenvalues)
   LSUBROT=      F    optimize rotation matrix (better conditioning)
   TURBO    =      0    0=normal 1=particle mesh
   IRESTART =      0    0=no restart 2=restart with 2 vectors
   NREBOOT  =      0    no. of reboots
   NMIN     =      0    reboot dimension
   EREF     =   0.00    reference energy to select bands
   IMIX   =      4    mixing-type and parameters
     AMIX     =   0.40;   BMIX     =  1.00
     AMIX_MAG =   1.60;   BMIX_MAG =  1.00
     AMIN     =   0.10
     WC   =   100.;   INIMIX=   1;  MIXPRE=   1;  MAXMIX= -45

 Intra band minimization:
   WEIMIN = 0.0000     energy-eigenvalue tresh-hold
   EBREAK =  0.15E-09  absolut break condition
   DEPER  =   0.30     relativ break condition  

   TIME   =   0.40     timestep for ELM

  volume/ion in A,a.u.               =      49.64       335.01
  Fermi-wavevector in a.u.,A,eV,Ry     =   0.711510  1.344560  6.887909  0.506247
  Thomas-Fermi vector in A             =   1.798641
 
 Write flags
   LWAVE        =      T    write WAVECAR
   LDOWNSAMPLE  =      F    k-point downsampling of WAVECAR
   LCHARG       =      T    write CHGCAR
   LVTOT        =      F    write LOCPOT, total local potential
   LVHAR        =      F    write LOCPOT, Hartree potential only
   LELF         =      F    write electronic localiz. function (ELF)
   LORBIT       =      0    0 simple, 1 ext, 2 COOP (PROOUT), +10 PAW based schemes


 Dipole corrections
   LMONO  =      F    monopole corrections only (constant potential shift)
   LDIPOL =      F    correct potential (dipole corrections)
   IDIPOL =      0    1-x, 2-y, 3-z, 4-all directions 
   EPSILON=  1.0000000 bulk dielectric constant

 Exchange correlation treatment:
   GGA     =    --    GGA type
   LEXCH   =     8    internal setting for exchange type
   VOSKOWN=      0    Vosko Wilk Nusair interpolation
   LHFCALC =     F    Hartree Fock is set to
   LHFONE  =     F    Hartree Fock one center treatment
   AEXX    =    0.0000 exact exchange contribution

 Linear response parameters
   LEPSILON=     F    determine dielectric tensor
   LRPA    =     F    only Hartree local field effects (RPA)
   LNABLA  =     F    use nabla operator in PAW spheres
   LVEL    =     F    velocity operator in full k-point grid
   LINTERFAST=   F  fast interpolation
   KINTER  =     0    interpolate to denser k-point grid
   CSHIFT  =0.1000    complex shift for real part using Kramers Kronig
   OMEGAMAX=  -1.0    maximum frequency
   DEG_THRESHOLD= 0.2000000E-02 threshold for treating states as degnerate
   RTIME   =   -0.100 relaxation time in fs
  (WPLASMAI=    0.000 imaginary part of plasma frequency in eV, 0.658/RTIME)
   DFIELD  = 0.0000000 0.0000000 0.0000000 field for delta impulse in time
 
 Orbital magnetization related:
   ORBITALMAG=     F  switch on orbital magnetization
   LCHIMAG   =     F  perturbation theory with respect to B field
   DQ        =  0.001000  dq finite difference perturbation B field
   LLRAUG    =     F  two centre corrections for induced B field



--------------------------------------------------------------------------------------------------------


 Static calculation
 charge density and potential will be updated during run
 non-spin polarized calculation
 Conjugate gradient for all bands (Freysoldt, et al. PRB 79, 241103 (2009))
 preconditioned conjugated gradient                                        
 perform sub-space diagonalisation
    before iterative eigenvector-optimisation
 modified Broyden-mixing scheme, WC =      100.0
 initial mixing is a Kerker type mixing with AMIX =  0.4000 and BMIX =      1.0000
 Hartree-type preconditioning will be used
 using additional bands           60
 reciprocal scheme for non local part
 use partial core corrections
 no Harris-corrections to forces 
 use gradient corrections 
 use of overlap-Matrix (Vanderbilt PP)
 Gauss-broadening in eV      SIGMA  =   0.01


--------------------------------------------------------------------------------------------------------


  energy-cutoff  :     1000.00
  volume of cell :     2631.08
      direct lattice vectors                 reciprocal lattice vectors
    12.325000000  0.000000000  0.000000000     0.081135903  0.046843835  0.000000000
    -6.162500000 10.673763102  0.000000000     0.000000000  0.093687670  0.000000000
     0.000000000  0.000000000 20.000000000     0.000000000  0.000000000  0.050000000

  length of vectors
    12.325000000 12.325000000 20.000000000     0.093687670  0.093687670  0.050000000


 
 k-points in units of 2pi/SCALE and weight: auto                                    
   0.00000000  0.00000000  0.00000000       1.000
 
 k-points in reciprocal lattice and weights: auto                                    
   0.00000000  0.00000000  0.00000000       1.000
 
 position of ions in fractional coordinates (direct lattice) 
   0.97245084  0.00032082  0.00070839
   0.03911838  0.13365950  0.00055022
   0.17244363  0.00029545  0.00062454
   0.23909628  0.13364792  0.00032058
   0.97245206  0.20032201  0.00060652
   0.03912836  0.33364377  0.00055519
   0.17245176  0.20035455  0.00027396
   0.23912436  0.33366572  0.00009033
   0.37246557  0.00032440  0.00056739
   0.43913747  0.13361994  0.00032292
   0.97244982  0.40030936  0.00068451
   0.03912498  0.53363679  0.00071676
   0.37241618  0.40032948  0.00000000
   0.43909960  0.53363898  0.00029052
   0.57244368  0.00031213  0.00069947
   0.63911021  0.13363175  0.00068409
   0.97245270  0.60030565  0.00080036
   0.03912449  0.73364036  0.00081814
   0.57243347  0.60030624  0.00050362
   0.63911189  0.73364188  0.00065988
   0.17245463  0.40031823  0.00036131
   0.23912018  0.53363655  0.00047314
   0.37245975  0.20029599  0.00011125
   0.43910710  0.33367342  0.00006970
   0.17245216  0.60031151  0.00065542
   0.23912337  0.73363857  0.00071891
   0.57243108  0.20028917  0.00051662
   0.63911277  0.33361863  0.00057797
   0.37243981  0.60030802  0.00045356
   0.43911609  0.73363786  0.00061774
   0.57246936  0.40032050  0.00042490
   0.63911941  0.53365087  0.00057451
   0.77244572  0.00031543  0.00074520
   0.83911628  0.13364020  0.00071913
   0.77244051  0.20030743  0.00072629
   0.83912024  0.33363573  0.00073183
   0.77244632  0.40029837  0.00072872
   0.83911898  0.53363396  0.00077638
   0.77245614  0.60030817  0.00074464
   0.83911503  0.73364318  0.00078939
   0.97245531  0.80030558  0.00081529
   0.03911471  0.93364329  0.00074756
   0.17245797  0.80031221  0.00077922
   0.23913455  0.93364719  0.00068106
   0.37245140  0.80031667  0.00068925
   0.43912449  0.93364477  0.00067679
   0.57244110  0.80031005  0.00066817
   0.63911507  0.93363899  0.00073456
   0.77244510  0.80031319  0.00075258
   0.83911661  0.93364434  0.00075854
   0.37302101  0.25122688  0.35355339
   0.42087980  0.18931315  0.35677448
   0.32515698  0.31316719  0.35058065
 
 position of ions in cartesian coordinates  (Angst):
  11.98347958  0.00342433  0.01416777
  -0.34154264  1.42664989  0.01100432
   2.12354700  0.00315355  0.01249070
   2.12325634  1.42652621  0.00641170
  10.75098721  2.13818970  0.01213047
  -1.57382270  3.56123457  0.01110375
   0.89078307  2.13853702  0.00547917
   0.89099273  3.56146885  0.00180651
   4.58863896  0.00346260  0.01134782
   4.58893648  1.42622757  0.00645846
   9.51853763  4.27280730  0.01369027
  -2.80632132  5.69591267  0.01433526
   2.12299894  4.27302204  0.00000000
   2.12335237  5.69593607  0.00581036
   7.05344483  0.00333155  0.01398950
   7.05352764  1.42635365  0.01368187
   8.28609598  6.40752033  0.01600723
  -4.03884931  7.83070339  0.01636283
   3.35585531  6.40752662  0.01007237
   3.35598594  7.83071962  0.01319763
  -0.34145776  4.27290193  0.00722612
  -0.34137895  5.69591010  0.00946273
   3.35624236  2.13791198  0.00222492
   3.35573251  3.56155103  0.00139405
  -1.57394684  6.40758280  0.01310850
  -1.57385216  7.83068434  0.01437823
   5.82093107  2.13783916  0.01033241
   5.82114012  3.56096622  0.01155939
   0.89092245  6.40754561  0.00907111
   0.89106251  7.83067670  0.01235474
   4.58870974  4.27292622  0.00849795
   4.58852320  5.69606300  0.01149026
   9.51844972  0.00336679  0.01490402
   9.51855036  1.42644387  0.01438264
   8.28593477  2.13803408  0.01452582
   8.28612680  3.56114872  0.01463668
   7.05356221  4.27268994  0.01457444
   7.05362213  5.69588251  0.01552751
   5.82112285  6.40754723  0.01489279
   5.82101669  7.83073350  0.01578780
   7.05362858  8.54227219  0.01630582
  -5.27148792  9.96548729  0.01495127
  -2.80637951  8.54234295  0.01558431
  -2.80626749  9.96552896  0.01362126
  -0.34148805  8.54239058  0.01378498
  -0.34137657  9.96550309  0.01353576
   2.12342586  8.54231992  0.01336337
   2.12354296  9.96544135  0.01469111
   4.58845581  8.54235337  0.01505154
   4.58852904  9.96549848  0.01517076
   3.04929830  2.68153618  7.07106781
   4.02070129  2.02068374  7.13548967
   2.07766701  3.34267235  7.01161294
 


--------------------------------------------------------------------------------------------------------


 k-point   1 :   0.0000 0.0000 0.0000  plane waves:  189031

 maximum and minimum number of plane-waves per node :    189031   189031

 maximum number of plane-waves:    189031
 maximum index in each direction: 
   IXMAX=   31   IYMAX=   31   IZMAX=   51
   IXMIN=  -31   IYMIN=  -31   IZMIN=  -51


 serial   3D FFT for wavefunctions
 parallel 3D FFT for charge:
    minimum data exchange during FFTs selected (reduces bandwidth)


 total amount of memory used by VASP MPI-rank0   556209. kBytes
=======================================================================

   base      :      30000. kBytes
   nonl-proj :     184518. kBytes
   fftplans  :      31725. kBytes
   grid      :     282516. kBytes
   one-center:        162. kBytes
   wavefun   :      27288. kBytes
 
     INWAV:  cpu time    0.0000: real time    0.0000
 Broyden mixing: mesh for mixing (old mesh)
   NGX = 63   NGY = 63   NGZ =103
  (NGX  =256   NGY  =256   NGZ  =420)
  gives a total of 408807 points

 initial charge density was supplied:
 charge density of overlapping atoms calculated
 number of electron     216.0000000 magnetization 
 keeping initial charge density in first step


--------------------------------------------------------------------------------------------------------


 Maximum index for augmentation-charges          459 (set IRDMAX)


--------------------------------------------------------------------------------------------------------


 First call to EWALD:  gamma=   0.128
 Maximum number of real-space cells 3x 3x 2
 Maximum number of reciprocal cells 3x 3x 4

    FEWALD:  cpu time    0.0021: real time    0.0021


--------------------------------------- Iteration      1(   1)  ---------------------------------------


    POTLOK:  cpu time    1.4619: real time    1.4712
    SETDIJ:  cpu time    0.2421: real time    0.2429
    TRIAL :  cpu time   21.7423: real time   21.9185
    CORREC:  cpu time    0.0004: real time    0.0006
    --------------------------------------------
      LOOP:  cpu time   23.4563: real time   23.6562

 eigenvalue-minimisations  :   336
 total energy-change (2. order) : 0.2404197E+04  (-0.1180813E+05)
 number of electron     216.0000000 magnetization 
 augmentation part      216.0000000 magnetization 

 Free energy of the ion-electron system (eV)
  ---------------------------------------------------
  alpha Z        PSCENC =        59.93625244
  Ewald energy   TEWEN  =     30159.98826637
  -Hartree energ DENC   =    -36335.44209258
  -exchange      EXHF   =         0.00000000
  -V(xc)+E(xc)   XCENC  =       602.81633707
  PAW double counting   =      6339.73130699    -6197.22120962
  entropy T*S    EENTRO =        -0.00000962
  eigenvalues    EBANDS =      -595.13511681
  atomic energy  EATOM  =      8369.52358910
  ---------------------------------------------------
  free energy    TOTEN  =      2404.19732335 eV

  energy without entropy =     2404.19733297  energy(sigma->0) =     2404.19732816


--------------------------------------------------------------------------------------------------------




--------------------------------------- Iteration      1(   2)  ---------------------------------------


    TRIAL :  cpu time   30.8841: real time   31.1256
    CORREC:  cpu time    0.0001: real time    0.0001
    --------------------------------------------
      LOOP:  cpu time   30.9017: real time   31.2022

 eigenvalue-minimisations  :   560
 total energy-change (2. order) :-0.2437850E+04  (-0.2308386E+04)
 number of electron     216.0000000 magnetization 
 augmentation part      216.0000000 magnetization 

 Free energy of the ion-electron system (eV)
  ---------------------------------------------------
  alpha Z        PSCENC =        59.93625244
  Ewald energy   TEWEN  =     30159.98826637
  -Hartree energ DENC   =    -36335.44209258
  -exchange      EXHF   =         0.00000000
  -V(xc)+E(xc)   XCENC  =       602.81633707
  PAW double counting   =      6339.73130699    -6197.22120962
  entropy T*S    EENTRO =        -0.00000000
  eigenvalues    EBANDS =     -3032.98490116
  atomic energy  EATOM  =      8369.52358910
  ---------------------------------------------------
  free energy    TOTEN  =       -33.65245138 eV

  energy without entropy =      -33.65245138  energy(sigma->0) =      -33.65245138


--------------------------------------------------------------------------------------------------------




--------------------------------------- Iteration      1(   3)  ---------------------------------------


    TRIAL :  cpu time   23.9838: real time   24.1872
    CORREC:  cpu time    0.0001: real time    0.0001
    --------------------------------------------
      LOOP:  cpu time   23.9978: real time   24.2275

 eigenvalue-minimisations  :   392
 total energy-change (2. order) :-0.5598814E+03  (-0.5570323E+03)
 number of electron     216.0000000 magnetization 
 augmentation part      216.0000000 magnetization 

 Free energy of the ion-electron system (eV)
  ---------------------------------------------------
  alpha Z        PSCENC =        59.93625244
  Ewald energy   TEWEN  =     30159.98826637
  -Hartree energ DENC   =    -36335.44209258
  -exchange      EXHF   =         0.00000000
  -V(xc)+E(xc)   XCENC  =       602.81633707
  PAW double counting   =      6339.73130699    -6197.22120962
  entropy T*S    EENTRO =        -0.00000000
  eigenvalues    EBANDS =     -3592.86631062
  atomic energy  EATOM  =      8369.52358910
  ---------------------------------------------------
  free energy    TOTEN  =      -593.53386085 eV

  energy without entropy =     -593.53386085  energy(sigma->0) =     -593.53386085


--------------------------------------------------------------------------------------------------------




--------------------------------------- Iteration      1(   4)  ---------------------------------------


    TRIAL :  cpu time   26.3159: real time   26.5068
    CORREC:  cpu time    0.0001: real time    0.0001
    --------------------------------------------
      LOOP:  cpu time   26.3670: real time   26.5585

 eigenvalue-minimisations  :   448
 total energy-change (2. order) :-0.2617914E+02  (-0.2601403E+02)
 number of electron     216.0000000 magnetization 
 augmentation part      216.0000000 magnetization 

 Free energy of the ion-electron system (eV)
  ---------------------------------------------------
  alpha Z        PSCENC =        59.93625244
  Ewald energy   TEWEN  =     30159.98826637
  -Hartree energ DENC   =    -36335.44209258
  -exchange      EXHF   =         0.00000000
  -V(xc)+E(xc)   XCENC  =       602.81633707
  PAW double counting   =      6339.73130699    -6197.22120962
  entropy T*S    EENTRO =        -0.00000000
  eigenvalues    EBANDS =     -3619.04544778
  atomic energy  EATOM  =      8369.52358910
  ---------------------------------------------------
  free energy    TOTEN  =      -619.71299800 eV

  energy without entropy =     -619.71299800  energy(sigma->0) =     -619.71299800


--------------------------------------------------------------------------------------------------------




--------------------------------------- Iteration      1(   5)  ---------------------------------------


    TRIAL :  cpu time   21.7101: real time   21.8691
    CORREC:  cpu time    0.0001: real time    0.0003
    CHARGE:  cpu time    2.2970: real time    2.3135
    --------------------------------------------
      LOOP:  cpu time   24.0398: real time   24.2160

 eigenvalue-minimisations  :   336
 total energy-change (2. order) :-0.9262264E+00  (-0.9256361E+00)
 number of electron     216.0000000 magnetization 
 augmentation part       -0.4299226 magnetization 

 Free energy of the ion-electron system (eV)
  ---------------------------------------------------
  alpha Z        PSCENC =        59.93625244
  Ewald energy   TEWEN  =     30159.98826637
  -Hartree energ DENC   =    -36335.44209258
  -exchange      EXHF   =         0.00000000
  -V(xc)+E(xc)   XCENC  =       602.81633707
  PAW double counting   =      6339.73130699    -6197.22120962
  entropy T*S    EENTRO =        -0.00000000
  eigenvalues    EBANDS =     -3619.97167419
  atomic energy  EATOM  =      8369.52358910
  ---------------------------------------------------
  free energy    TOTEN  =      -620.63922441 eV

  energy without entropy =     -620.63922441  energy(sigma->0) =     -620.63922441


--------------------------------------------------------------------------------------------------------




--------------------------------------- Iteration      1(   6)  ---------------------------------------


    POTLOK:  cpu time    1.4556: real time    1.4680
    SETDIJ:  cpu time    0.2269: real time    0.2279
    TRIAL :  cpu time   15.4835: real time   15.6075
    CORREC:  cpu time    7.1332: real time    7.1806
    CHARGE:  cpu time    2.2812: real time    2.2973
    --------------------------------------------
      LOOP:  cpu time   26.5894: real time   26.8548

 eigenvalue-minimisations  :     0
 total energy-change (2. order) : 0.1041253E+03  (-0.1202978E+02)
 number of electron     216.0000000 magnetization 
 augmentation part       -0.4922384 magnetization 

 Free energy of the ion-electron system (eV)
  ---------------------------------------------------
  alpha Z        PSCENC =        59.93625244
  Ewald energy   TEWEN  =     30159.98826637
  -Hartree energ DENC   =    -37667.31335333
  -exchange      EXHF   =         0.00000000
  -V(xc)+E(xc)   XCENC  =       669.77050466
  PAW double counting   =    113779.01780338  -113642.25295938
  entropy T*S    EENTRO =        -0.00000000
  eigenvalues    EBANDS =     -2245.18400410
  atomic energy  EATOM  =      8369.52358910
  ---------------------------------------------------
  free energy    TOTEN  =      -516.51390086 eV

  energy without entropy =     -516.51390086  energy(sigma->0) =     -516.51390086


--------------------------------------------------------------------------------------------------------




--------------------------------------- Iteration      1(   7)  ---------------------------------------


    POTLOK:  cpu time    1.4323: real time    1.4399
    SETDIJ:  cpu time    0.2338: real time    0.2346
    TRIAL :  cpu time   15.4988: real time   15.6124
    CORREC:  cpu time    7.1316: real time    7.1833
    CHARGE:  cpu time    2.2847: real time    2.3010
    --------------------------------------------
      LOOP:  cpu time   26.5962: real time   26.7920

 eigenvalue-minimisations  :     0
 total energy-change (2. order) :-0.1204423E+02  (-0.1606248E+01)
 number of electron     216.0000000 magnetization 
 augmentation part       -0.5231392 magnetization 

 Free energy of the ion-electron system (eV)
  ---------------------------------------------------
  alpha Z        PSCENC =        59.93625244
  Ewald energy   TEWEN  =     30159.98826637
  -Hartree energ DENC   =    -37250.86782359
  -exchange      EXHF   =         0.00000000
  -V(xc)+E(xc)   XCENC  =       649.96494693
  PAW double counting   =    132037.11446257  -131897.60250873
  entropy T*S    EENTRO =        -0.00000000
  eigenvalues    EBANDS =     -2656.61531511
  atomic energy  EATOM  =      8369.52358910
  ---------------------------------------------------
  free energy    TOTEN  =      -528.55813002 eV

  energy without entropy =     -528.55813002  energy(sigma->0) =     -528.55813002


--------------------------------------------------------------------------------------------------------




--------------------------------------- Iteration      1(   8)  ---------------------------------------


    POTLOK:  cpu time    1.4360: real time    1.4436
    SETDIJ:  cpu time    0.2333: real time    0.2342
    TRIAL :  cpu time   15.4654: real time   15.5778
    CORREC:  cpu time    7.1216: real time    7.1695
    CHARGE:  cpu time    2.2796: real time    2.2961
    --------------------------------------------
      LOOP:  cpu time   26.5898: real time   26.7959

 eigenvalue-minimisations  :     0
 total energy-change (2. order) :-0.1606128E+01  (-0.5420403E+00)
 number of electron     216.0000000 magnetization 
 augmentation part       -0.5207095 magnetization 

 Free energy of the ion-electron system (eV)
  ---------------------------------------------------
  alpha Z        PSCENC =        59.93625244
  Ewald energy   TEWEN  =     30159.98826637
  -Hartree energ DENC   =    -37220.03657091
  -exchange      EXHF   =         0.00000000
  -V(xc)+E(xc)   XCENC  =       648.34507816
  PAW double counting   =    140094.57843511  -139954.58061891
  entropy T*S    EENTRO =        -0.00000000
  eigenvalues    EBANDS =     -2687.91868977
  atomic energy  EATOM  =      8369.52358910
  ---------------------------------------------------
  free energy    TOTEN  =      -530.16425840 eV

  energy without entropy =     -530.16425840  energy(sigma->0) =     -530.16425840


--------------------------------------------------------------------------------------------------------




--------------------------------------- Iteration      1(   9)  ---------------------------------------


    POTLOK:  cpu time    1.4273: real time    1.4442
    SETDIJ:  cpu time    0.2320: real time    0.2332
    TRIAL :  cpu time   15.4677: real time   15.5862
    CORREC:  cpu time    7.1112: real time    7.1707
    CHARGE:  cpu time    2.2828: real time    2.3023
    --------------------------------------------
      LOOP:  cpu time   26.6170: real time   26.8343

 eigenvalue-minimisations  :     0
 total energy-change (2. order) :-0.5415144E+00  (-0.2173064E+00)
 number of electron     216.0000000 magnetization 
 augmentation part       -0.5148676 magnetization 

 Free energy of the ion-electron system (eV)
  ---------------------------------------------------
  alpha Z        PSCENC =        59.93625244
  Ewald energy   TEWEN  =     30159.98826637
  -Hartree energ DENC   =    -37227.08047106
  -exchange      EXHF   =         0.00000000
  -V(xc)+E(xc)   XCENC  =       648.05745296
  PAW double counting   =    146516.95951088  -146376.75502095
  entropy T*S    EENTRO =        -0.00000000
  eigenvalues    EBANDS =     -2681.33535255
  atomic energy  EATOM  =      8369.52358910
  ---------------------------------------------------
  free energy    TOTEN  =      -530.70577281 eV

  energy without entropy =     -530.70577281  energy(sigma->0) =     -530.70577281


--------------------------------------------------------------------------------------------------------




--------------------------------------- Iteration      1(  10)  ---------------------------------------


    POTLOK:  cpu time    1.4456: real time    1.4529
    SETDIJ:  cpu time    0.2300: real time    0.2307
    TRIAL :  cpu time   15.4485: real time   15.5967
    CORREC:  cpu time    7.1134: real time    7.1605
    CHARGE:  cpu time    2.2860: real time    2.3021
    --------------------------------------------
      LOOP:  cpu time   26.5709: real time   26.7993

 eigenvalue-minimisations  :     0
 total energy-change (2. order) :-0.2169014E+00  (-0.9157428E-01)
 number of electron     216.0000000 magnetization 
 augmentation part       -0.5078939 magnetization 

 Free energy of the ion-electron system (eV)
  ---------------------------------------------------
  alpha Z        PSCENC =        59.93625244
  Ewald energy   TEWEN  =     30159.98826637
  -Hartree energ DENC   =    -37226.48726257
  -exchange      EXHF   =         0.00000000
  -V(xc)+E(xc)   XCENC  =       647.82356658
  PAW double counting   =    149014.79108609  -148874.48278530
  entropy T*S    EENTRO =        -0.00000000
  eigenvalues    EBANDS =     -2682.01538687
  atomic energy  EATOM  =      8369.52358910
  ---------------------------------------------------
  free energy    TOTEN  =      -530.92267416 eV

  energy without entropy =     -530.92267416  energy(sigma->0) =     -530.92267416


--------------------------------------------------------------------------------------------------------




--------------------------------------- Iteration      1(  11)  ---------------------------------------


    POTLOK:  cpu time    1.4450: real time    1.4524
    SETDIJ:  cpu time    0.2336: real time    0.2344
    TRIAL :  cpu time   15.4940: real time   15.6026
    CORREC:  cpu time    7.1371: real time    7.1866
    CHARGE:  cpu time    2.2795: real time    2.2957
    --------------------------------------------
      LOOP:  cpu time   26.6759: real time   26.8615

 eigenvalue-minimisations  :     0
 total energy-change (2. order) :-0.9137286E-01  (-0.3581261E-01)
 number of electron     216.0000000 magnetization 
 augmentation part       -0.5037699 magnetization 

 Free energy of the ion-electron system (eV)
  ---------------------------------------------------
  alpha Z        PSCENC =        59.93625244
  Ewald energy   TEWEN  =     30159.98826637
  -Hartree energ DENC   =    -37220.66932945
  -exchange      EXHF   =         0.00000000
  -V(xc)+E(xc)   XCENC  =       647.68248237
  PAW double counting   =    148802.28066917  -148661.97419714
  entropy T*S    EENTRO =        -0.00000000
  eigenvalues    EBANDS =     -2687.78177987
  atomic energy  EATOM  =      8369.52358910
  ---------------------------------------------------
  free energy    TOTEN  =      -531.01404702 eV

  energy without entropy =     -531.01404702  energy(sigma->0) =     -531.01404702


--------------------------------------------------------------------------------------------------------




--------------------------------------- Iteration      1(  12)  ---------------------------------------


    POTLOK:  cpu time    1.4451: real time    1.4539
    SETDIJ:  cpu time    0.2325: real time    0.2336
    TRIAL :  cpu time   15.4681: real time   15.6001
    CORREC:  cpu time    7.0995: real time    7.1559
    CHARGE:  cpu time    2.2927: real time    2.3097
    --------------------------------------------
      LOOP:  cpu time   26.5853: real time   26.8010

 eigenvalue-minimisations  :     0
 total energy-change (2. order) :-0.3578296E-01  (-0.1142227E-01)
 number of electron     216.0000000 magnetization 
 augmentation part       -0.5036951 magnetization 

 Free energy of the ion-electron system (eV)
  ---------------------------------------------------
  alpha Z        PSCENC =        59.93625244
  Ewald energy   TEWEN  =     30159.98826637
  -Hartree energ DENC   =    -37215.96312347
  -exchange      EXHF   =         0.00000000
  -V(xc)+E(xc)   XCENC  =       647.58357964
  PAW double counting   =    148013.48156280  -147873.20387476
  entropy T*S    EENTRO =        -0.00000000
  eigenvalues    EBANDS =     -2692.39608210
  atomic energy  EATOM  =      8369.52358910
  ---------------------------------------------------
  free energy    TOTEN  =      -531.04982998 eV

  energy without entropy =     -531.04982998  energy(sigma->0) =     -531.04982998


--------------------------------------------------------------------------------------------------------




--------------------------------------- Iteration      1(  13)  ---------------------------------------


    POTLOK:  cpu time    1.4447: real time    1.4528
    SETDIJ:  cpu time    0.2330: real time    0.2340
    TRIAL :  cpu time   15.4332: real time   15.5934
    CORREC:  cpu time    7.1114: real time    7.1712
    CHARGE:  cpu time    2.2783: real time    2.2943
    --------------------------------------------
      LOOP:  cpu time   26.5783: real time   26.8263

 eigenvalue-minimisations  :     0
 total energy-change (2. order) :-0.1143223E-01  (-0.3155073E-02)
 number of electron     216.0000000 magnetization 
 augmentation part       -0.5044144 magnetization 

 Free energy of the ion-electron system (eV)
  ---------------------------------------------------
  alpha Z        PSCENC =        59.93625244
  Ewald energy   TEWEN  =     30159.98826637
  -Hartree energ DENC   =    -37214.53126855
  -exchange      EXHF   =         0.00000000
  -V(xc)+E(xc)   XCENC  =       647.53777630
  PAW double counting   =    147420.16161137  -147279.89868557
  entropy T*S    EENTRO =        -0.00000000
  eigenvalues    EBANDS =     -2693.77880367
  atomic energy  EATOM  =      8369.52358910
  ---------------------------------------------------
  free energy    TOTEN  =      -531.06126221 eV

  energy without entropy =     -531.06126221  energy(sigma->0) =     -531.06126221


--------------------------------------------------------------------------------------------------------




--------------------------------------- Iteration      1(  14)  ---------------------------------------


    POTLOK:  cpu time    1.4441: real time    1.4515
    SETDIJ:  cpu time    0.2347: real time    0.2354
    TRIAL :  cpu time   15.4304: real time   15.5826
    CORREC:  cpu time    7.1153: real time    7.1863
    CHARGE:  cpu time    2.2879: real time    2.3038
    --------------------------------------------
      LOOP:  cpu time   26.5647: real time   26.8149

 eigenvalue-minimisations  :     0
 total energy-change (2. order) :-0.3160546E-02  (-0.8474599E-03)
 number of electron     216.0000000 magnetization 
 augmentation part       -0.5047395 magnetization 

 Free energy of the ion-electron system (eV)
  ---------------------------------------------------
  alpha Z        PSCENC =        59.93625244
  Ewald energy   TEWEN  =     30159.98826637
  -Hartree energ DENC   =    -37214.54960361
  -exchange      EXHF   =         0.00000000
  -V(xc)+E(xc)   XCENC  =       647.53458090
  PAW double counting   =    147153.04367992  -147012.78682450
  entropy T*S    EENTRO =        -0.00000000
  eigenvalues    EBANDS =     -2693.75436338
  atomic energy  EATOM  =      8369.52358910
  ---------------------------------------------------
  free energy    TOTEN  =      -531.06442276 eV

  energy without entropy =     -531.06442276  energy(sigma->0) =     -531.06442276


--------------------------------------------------------------------------------------------------------




--------------------------------------- Iteration      1(  15)  ---------------------------------------


    POTLOK:  cpu time    1.4444: real time    1.4518
    SETDIJ:  cpu time    0.2381: real time    0.2388
    TRIAL :  cpu time   15.4873: real time   15.5968
    CORREC:  cpu time    7.1352: real time    7.1833
    CHARGE:  cpu time    2.2889: real time    2.3053
    --------------------------------------------
      LOOP:  cpu time   26.6499: real time   26.8335

 eigenvalue-minimisations  :     0
 total energy-change (2. order) :-0.8478197E-03  (-0.2446413E-03)
 number of electron     216.0000000 magnetization 
 augmentation part       -0.5049007 magnetization 

 Free energy of the ion-electron system (eV)
  ---------------------------------------------------
  alpha Z        PSCENC =        59.93625244
  Ewald energy   TEWEN  =     30159.98826637
  -Hartree energ DENC   =    -37214.45374404
  -exchange      EXHF   =         0.00000000
  -V(xc)+E(xc)   XCENC  =       647.53555945
  PAW double counting   =    147049.56114126  -146909.30691768
  entropy T*S    EENTRO =        -0.00000000
  eigenvalues    EBANDS =     -2693.84941747
  atomic energy  EATOM  =      8369.52358910
  ---------------------------------------------------
  free energy    TOTEN  =      -531.06527058 eV

  energy without entropy =     -531.06527058  energy(sigma->0) =     -531.06527058


--------------------------------------------------------------------------------------------------------




--------------------------------------- Iteration      1(  16)  ---------------------------------------


    POTLOK:  cpu time    1.4448: real time    1.4523
    SETDIJ:  cpu time    0.2354: real time    0.2361
    TRIAL :  cpu time   15.4410: real time   15.5952
    CORREC:  cpu time    7.0940: real time    7.1710
    CHARGE:  cpu time    2.2825: real time    2.2982
    --------------------------------------------
      LOOP:  cpu time   26.5174: real time   26.7902

 eigenvalue-minimisations  :     0
 total energy-change (2. order) :-0.2448209E-03  (-0.9124812E-04)
 number of electron     216.0000000 magnetization 
 augmentation part       -0.5049631 magnetization 

 Free energy of the ion-electron system (eV)
  ---------------------------------------------------
  alpha Z        PSCENC =        59.93625244
  Ewald energy   TEWEN  =     30159.98826637
  -Hartree energ DENC   =    -37214.36736323
  -exchange      EXHF   =         0.00000000
  -V(xc)+E(xc)   XCENC  =       647.53453739
  PAW double counting   =    146987.93992798  -146847.68628913
  entropy T*S    EENTRO =        -0.00000000
  eigenvalues    EBANDS =     -2693.93443632
  atomic energy  EATOM  =      8369.52358910
  ---------------------------------------------------
  free energy    TOTEN  =      -531.06551540 eV

  energy without entropy =     -531.06551540  energy(sigma->0) =     -531.06551540


--------------------------------------------------------------------------------------------------------




--------------------------------------- Iteration      1(  17)  ---------------------------------------


    POTLOK:  cpu time    1.4432: real time    1.4509
    SETDIJ:  cpu time    0.2342: real time    0.2350
    TRIAL :  cpu time   15.4591: real time   15.5909
    CORREC:  cpu time    7.0930: real time    7.1737
    CHARGE:  cpu time    2.2677: real time    2.2952
    --------------------------------------------
      LOOP:  cpu time   26.5341: real time   26.7905

 eigenvalue-minimisations  :     0
 total energy-change (2. order) :-0.8992516E-04  (-0.4360399E-04)
 number of electron     216.0000000 magnetization 
 augmentation part       -0.5049932 magnetization 

 Free energy of the ion-electron system (eV)
  ---------------------------------------------------
  alpha Z        PSCENC =        59.93625244
  Ewald energy   TEWEN  =     30159.98826637
  -Hartree energ DENC   =    -37214.51986163
  -exchange      EXHF   =         0.00000000
  -V(xc)+E(xc)   XCENC  =       647.54278680
  PAW double counting   =    146942.26518700  -146802.01230658
  entropy T*S    EENTRO =        -0.00000000
  eigenvalues    EBANDS =     -2693.78951881
  atomic energy  EATOM  =      8369.52358910
  ---------------------------------------------------
  free energy    TOTEN  =      -531.06560532 eV

  energy without entropy =     -531.06560532  energy(sigma->0) =     -531.06560532


--------------------------------------------------------------------------------------------------------




--------------------------------------- Iteration      1(  18)  ---------------------------------------


    POTLOK:  cpu time    1.4461: real time    1.4539
    SETDIJ:  cpu time    0.2358: real time    0.2367
    TRIAL :  cpu time   15.4692: real time   15.5916
    CORREC:  cpu time    7.1228: real time    7.1723
    CHARGE:  cpu time    2.2825: real time    2.2989
    --------------------------------------------
      LOOP:  cpu time   26.6027: real time   26.8187

 eigenvalue-minimisations  :     0
 total energy-change (2. order) :-0.4140689E-04  (-0.1816296E-04)
 number of electron     216.0000000 magnetization 
 augmentation part       -0.5050358 magnetization 

 Free energy of the ion-electron system (eV)
  ---------------------------------------------------
  alpha Z        PSCENC =        59.93625244
  Ewald energy   TEWEN  =     30159.98826637
  -Hartree energ DENC   =    -37214.61691130
  -exchange      EXHF   =         0.00000000
  -V(xc)+E(xc)   XCENC  =       647.54727197
  PAW double counting   =    146925.26189153  -146785.00884742
  entropy T*S    EENTRO =        -0.00000000
  eigenvalues    EBANDS =     -2693.69715942
  atomic energy  EATOM  =      8369.52358910
  ---------------------------------------------------
  free energy    TOTEN  =      -531.06564673 eV

  energy without entropy =     -531.06564673  energy(sigma->0) =     -531.06564673


--------------------------------------------------------------------------------------------------------




--------------------------------------- Iteration      1(  19)  ---------------------------------------


    POTLOK:  cpu time    1.4436: real time    1.4518
    SETDIJ:  cpu time    0.2340: real time    0.2347
    TRIAL :  cpu time   15.4483: real time   15.5851
    CORREC:  cpu time    7.1242: real time    7.1710
    CHARGE:  cpu time    2.2884: real time    2.3046
    --------------------------------------------
      LOOP:  cpu time   26.5804: real time   26.8037

 eigenvalue-minimisations  :     0
 total energy-change (2. order) :-0.1759856E-04  (-0.7478329E-05)
 number of electron     216.0000000 magnetization 
 augmentation part       -0.5050413 magnetization 

 Free energy of the ion-electron system (eV)
  ---------------------------------------------------
  alpha Z        PSCENC =        59.93625244
  Ewald energy   TEWEN  =     30159.98826637
  -Hartree energ DENC   =    -37214.60752695
  -exchange      EXHF   =         0.00000000
  -V(xc)+E(xc)   XCENC  =       647.54591220
  PAW double counting   =    146934.93490510  -146794.68104796
  entropy T*S    EENTRO =        -0.00000000
  eigenvalues    EBANDS =     -2693.70601463
  atomic energy  EATOM  =      8369.52358910
  ---------------------------------------------------
  free energy    TOTEN  =      -531.06566433 eV

  energy without entropy =     -531.06566433  energy(sigma->0) =     -531.06566433


--------------------------------------------------------------------------------------------------------




--------------------------------------- Iteration      1(  20)  ---------------------------------------


    POTLOK:  cpu time    1.4450: real time    1.4525
    SETDIJ:  cpu time    0.2318: real time    0.2325
    TRIAL :  cpu time   15.4752: real time   15.5853
    CORREC:  cpu time    7.1225: real time    7.1697
    CHARGE:  cpu time    2.2884: real time    2.3044
    --------------------------------------------
      LOOP:  cpu time   26.6044: real time   26.8092

 eigenvalue-minimisations  :     0
 total energy-change (2. order) :-0.7138733E-05  (-0.1866159E-05)
 number of electron     216.0000000 magnetization 
 augmentation part       -0.5050404 magnetization 

 Free energy of the ion-electron system (eV)
  ---------------------------------------------------
  alpha Z        PSCENC =        59.93625244
  Ewald energy   TEWEN  =     30159.98826637
  -Hartree energ DENC   =    -37214.64210609
  -exchange      EXHF   =         0.00000000
  -V(xc)+E(xc)   XCENC  =       647.54702129
  PAW double counting   =    146949.05433820  -146808.80036931
  entropy T*S    EENTRO =        -0.00000000
  eigenvalues    EBANDS =     -2693.67266346
  atomic energy  EATOM  =      8369.52358910
  ---------------------------------------------------
  free energy    TOTEN  =      -531.06567147 eV

  energy without entropy =     -531.06567147  energy(sigma->0) =     -531.06567147


--------------------------------------------------------------------------------------------------------




--------------------------------------- Iteration      1(  21)  ---------------------------------------


    POTLOK:  cpu time    1.4455: real time    1.4529
    SETDIJ:  cpu time    0.2370: real time    0.2378
    TRIAL :  cpu time   15.4756: real time   15.5861
    CORREC:  cpu time    7.1142: real time    7.1686
    CHARGE:  cpu time    2.2824: real time    2.2983
    --------------------------------------------
      LOOP:  cpu time   26.5766: real time   26.7768

 eigenvalue-minimisations  :     0
 total energy-change (2. order) :-0.1894747E-05  (-0.6492485E-06)
 number of electron     216.0000000 magnetization 
 augmentation part       -0.5050320 magnetization 

 Free energy of the ion-electron system (eV)
  ---------------------------------------------------
  alpha Z        PSCENC =        59.93625244
  Ewald energy   TEWEN  =     30159.98826637
  -Hartree energ DENC   =    -37214.63680627
  -exchange      EXHF   =         0.00000000
  -V(xc)+E(xc)   XCENC  =       647.54635997
  PAW double counting   =    146954.51867503  -146814.26466057
  entropy T*S    EENTRO =        -0.00000000
  eigenvalues    EBANDS =     -2693.67734944
  atomic energy  EATOM  =      8369.52358910
  ---------------------------------------------------
  free energy    TOTEN  =      -531.06567336 eV

  energy without entropy =     -531.06567336  energy(sigma->0) =     -531.06567336


--------------------------------------------------------------------------------------------------------




--------------------------------------- Iteration      1(  22)  ---------------------------------------


    POTLOK:  cpu time    1.4424: real time    1.4503
    SETDIJ:  cpu time    0.2377: real time    0.2385
    TRIAL :  cpu time   15.4726: real time   15.5882
    CORREC:  cpu time    7.1083: real time    7.1684
    CHARGE:  cpu time    2.2820: real time    2.2993
    --------------------------------------------
      LOOP:  cpu time   26.6055: real time   26.8084

 eigenvalue-minimisations  :     0
 total energy-change (2. order) :-0.5962211E-06  (-0.2577605E-06)
 number of electron     216.0000000 magnetization 
 augmentation part       -0.5050237 magnetization 

 Free energy of the ion-electron system (eV)
  ---------------------------------------------------
  alpha Z        PSCENC =        59.93625244
  Ewald energy   TEWEN  =     30159.98826637
  -Hartree energ DENC   =    -37214.62962359
  -exchange      EXHF   =         0.00000000
  -V(xc)+E(xc)   XCENC  =       647.54596834
  PAW double counting   =    146955.94311091  -146815.68914229
  entropy T*S    EENTRO =        -0.00000000
  eigenvalues    EBANDS =     -2693.68409524
  atomic energy  EATOM  =      8369.52358910
  ---------------------------------------------------
  free energy    TOTEN  =      -531.06567396 eV

  energy without entropy =     -531.06567396  energy(sigma->0) =     -531.06567396


--------------------------------------------------------------------------------------------------------




--------------------------------------- Iteration      1(  23)  ---------------------------------------


    POTLOK:  cpu time    1.4455: real time    1.4546
    SETDIJ:  cpu time    0.2350: real time    0.2358
    TRIAL :  cpu time   15.4809: real time   15.6015
    CORREC:  cpu time    7.1196: real time    7.1687
    CHARGE:  cpu time    2.2776: real time    2.3020
    --------------------------------------------
      LOOP:  cpu time   26.5889: real time   26.8050

 eigenvalue-minimisations  :     0
 total energy-change (2. order) :-0.2009328E-06  (-0.8960888E-07)
 number of electron     216.0000000 magnetization 
 augmentation part       -0.5050210 magnetization 

 Free energy of the ion-electron system (eV)
  ---------------------------------------------------
  alpha Z        PSCENC =        59.93625244
  Ewald energy   TEWEN  =     30159.98826637
  -Hartree energ DENC   =    -37214.62565498
  -exchange      EXHF   =         0.00000000
  -V(xc)+E(xc)   XCENC  =       647.54583485
  PAW double counting   =    146956.33422705  -146816.08032173
  entropy T*S    EENTRO =        -0.00000000
  eigenvalues    EBANDS =     -2693.68786726
  atomic energy  EATOM  =      8369.52358910
  ---------------------------------------------------
  free energy    TOTEN  =      -531.06567416 eV

  energy without entropy =     -531.06567416  energy(sigma->0) =     -531.06567416


--------------------------------------------------------------------------------------------------------




--------------------------------------- Iteration      1(  24)  ---------------------------------------


    POTLOK:  cpu time    1.4409: real time    1.4483
    SETDIJ:  cpu time    0.2398: real time    0.2406
    TRIAL :  cpu time   15.4360: real time   15.5920
    CORREC:  cpu time    7.1356: real time    7.1820
    EDDIAG:  cpu time    3.1965: real time    3.2213
    CHARGE:  cpu time    2.2830: real time    2.2988
    --------------------------------------------
      LOOP:  cpu time   29.7686: real time   30.0496

 eigenvalue-minimisations  :     0
 total energy-change (2. order) :-0.6379560E-07  (-0.3778600E-07)
 number of electron     216.0000000 magnetization 
 augmentation part       -0.5050195 magnetization 

 Free energy of the ion-electron system (eV)
  ---------------------------------------------------
  alpha Z        PSCENC =        59.93625244
  Ewald energy   TEWEN  =     30159.98826637
  -Hartree energ DENC   =    -37214.62405426
  -exchange      EXHF   =         0.00000000
  -V(xc)+E(xc)   XCENC  =       647.54579388
  PAW double counting   =    146956.36829962  -146816.11441735
  entropy T*S    EENTRO =        -0.00000000
  eigenvalues    EBANDS =     -2693.68940402
  atomic energy  EATOM  =      8369.52358910
  ---------------------------------------------------
  free energy    TOTEN  =      -531.06567422 eV

  energy without entropy =     -531.06567422  energy(sigma->0) =     -531.06567422


--------------------------------------------------------------------------------------------------------


  average scaling for gradient   1.0171


 average (electrostatic) potential at core
  the test charge radii are     0.5770  0.5955
  (the norm of the test charge is              1.0000)
       1 -87.7255       2 -87.7237       3 -87.7255       4 -87.7249       5 -87.7210
       6 -87.7193       7 -87.7239       8 -87.7201       9 -87.7213      10 -87.7225
      11 -87.7182      12 -87.7195      13 -87.7217      14 -87.7177      15 -87.7180
      16 -87.7208      17 -87.7215      18 -87.7241      19 -87.7219      20 -87.7206
      21 -87.7205      22 -87.7166      23 -87.7233      24 -87.7219      25 -87.7202
      26 -87.7196      27 -87.7179      28 -87.7224      29 -87.7210      30 -87.7168
      31 -87.7202      32 -87.7211      33 -87.7211      34 -87.7212      35 -87.7172
      36 -87.7207      37 -87.7181      38 -87.7225      39 -87.7222      40 -87.7243
      41 -87.7253      42 -87.7258      43 -87.7231      44 -87.7242      45 -87.7201
      46 -87.7196      47 -87.7204      48 -87.7195      49 -87.7238      50 -87.7238
      51 -91.8084      52-123.9355      53-123.9373
 
 
 
 E-fermi :  -4.0533     XC(G=0):  -2.3605     alpha+bet : -2.1113

 Fermi energy:        -4.0532707465

 k-point     1 :       0.0000    0.0000    0.0000
  band No.  band energies     occupation 
      1     -28.8692      2.00000
      2     -27.8427      2.00000
      3     -23.2297      2.00000
      4     -22.2442      2.00000
      5     -22.2436      2.00000
      6     -22.2432      2.00000
      7     -22.2426      2.00000
      8     -22.2422      2.00000
      9     -22.2419      2.00000
     10     -20.3117      2.00000
     11     -20.3116      2.00000
     12     -20.3113      2.00000
     13     -20.3106      2.00000
     14     -20.3102      2.00000
     15     -20.3100      2.00000
     16     -19.3763      2.00000
     17     -19.3761      2.00000
     18     -19.3756      2.00000
     19     -19.3754      2.00000
     20     -19.3746      2.00000
     21     -19.3743      2.00000
     22     -17.1556      2.00000
     23     -17.1552      2.00000
     24     -17.1547      2.00000
     25     -17.1544      2.00000
     26     -17.1534      2.00000
     27     -17.1534      2.00000
     28     -15.9962      2.00000
     29     -15.9961      2.00000
     30     -15.9951      2.00000
     31     -15.9949      2.00000
     32     -15.9945      2.00000
     33     -15.9943      2.00000
     34     -14.6035      2.00000
     35     -14.6034      2.00000
     36     -14.6028      2.00000
     37     -14.6024      2.00000
     38     -14.6023      2.00000
     39     -14.6018      2.00000
     40     -12.8219      2.00000
     41     -12.1452      2.00000
     42     -12.1449      2.00000
     43     -12.1445      2.00000
     44     -12.1444      2.00000
     45     -12.1432      2.00000
     46     -12.1429      2.00000
     47     -11.9265      2.00000
     48     -11.9264      2.00000
     49     -11.9254      2.00000
     50     -11.9252      2.00000
     51     -11.9246      2.00000
     52     -11.9245      2.00000
     53     -11.5444      2.00000
     54     -11.2892      2.00000
     55     -11.2872      2.00000
     56     -10.5905      2.00000
     57     -10.4806      2.00000
     58     -10.4804      2.00000
     59     -10.4787      2.00000
     60     -10.4784      2.00000
     61     -10.4782      2.00000
     62     -10.4781      2.00000
     63      -9.4175      2.00000
     64      -9.4172      2.00000
     65      -9.4170      2.00000
     66      -9.4160      2.00000
     67      -9.4157      2.00000
     68      -9.4156      2.00000
     69      -9.1802      2.00000
     70      -9.1800      2.00000
     71      -9.1798      2.00000
     72      -9.1791      2.00000
     73      -9.1787      2.00000
     74      -9.1781      2.00000
     75      -9.1780      2.00000
     76      -9.1770      2.00000
     77      -9.1767      2.00000
     78      -9.1764      2.00000
     79      -9.1762      2.00000
     80      -9.1758      2.00000
     81      -7.6944      2.00000
     82      -7.6909      2.00000
     83      -7.4739      2.00000
     84      -7.4725      2.00000
     85      -7.4720      2.00000
     86      -7.4716      2.00000
     87      -7.4694      2.00000
     88      -7.4687      2.00000
     89      -7.1758      2.00000
     90      -7.1754      2.00000
     91      -7.1752      2.00000
     92      -7.1749      2.00000
     93      -7.1746      2.00000
     94      -7.1744      2.00000
     95      -6.2314      2.00000
     96      -6.2310      2.00000
     97      -6.2307      2.00000
     98      -6.2302      2.00000
     99      -6.2299      2.00000
    100      -6.2297      2.00000
    101      -5.9563      2.00000
    102      -5.9540      2.00000
    103      -4.1340      2.00000
    104      -4.1336      2.00000
    105      -4.1329      2.00000
    106      -4.1328      2.00000
    107      -4.1323      2.00000
    108      -4.1321      2.00000
    109      -1.1577      0.00000
    110      -1.1575      0.00000
    111      -1.1574      0.00000
    112      -1.1571      0.00000
    113      -1.1563      0.00000
    114      -1.1560      0.00000
    115       0.8218      0.00000
    116       0.8223      0.00000
    117       0.8227      0.00000
    118       0.8231      0.00000
    119       0.8231      0.00000
    120       0.8251      0.00000
    121       0.9731      0.00000
    122       1.3436      0.00000
    123       1.5859      0.00000
    124       1.5878      0.00000
    125       1.8309      0.00000
    126       2.2111      0.00000
    127       2.3037      0.00000
    128       2.3211      0.00000
    129       2.3298      0.00000
    130       2.3350      0.00000
    131       2.3370      0.00000
    132       2.4605      0.00000
    133       2.6997      0.00000
    134       2.6999      0.00000
    135       2.7003      0.00000
    136       2.7007      0.00000
    137       2.7009      0.00000
    138       2.7013      0.00000
    139       2.9762      0.00000
    140       2.9828      0.00000
    141       3.0773      0.00000
    142       3.0845      0.00000
    143       3.1030      0.00000
    144       3.1132      0.00000
    145       3.1235      0.00000
    146       3.1378      0.00000
    147       3.2168      0.00000
    148       3.2487      0.00000
    149       3.2651      0.00000
    150       3.2967      0.00000
    151       3.3052      0.00000
    152       4.4315      0.00000
    153       4.7209      0.00000
    154       4.8191      0.00000
    155       4.8466      0.00000
    156       4.9010      0.00000
    157       5.1965      0.00000
    158       5.2756      0.00000
    159       5.3001      0.00000
    160       5.3014      0.00000
    161       5.3059      0.00000
    162       5.3074      0.00000
    163       5.3082      0.00000
    164       5.3374      0.00000
    165       5.4238      0.00000
    166       5.4809      0.00000
    167       5.5415      0.00000
    168       5.5857      0.00000


--------------------------------------------------------------------------------------------------------


 soft charge-density along one line, spin component           1
         0         1         2         3         4         5         6         7         8         9
 total charge-density along one line
 
 pseudopotential strength for first ion, spin component:           1
 12.630  21.251  -0.000   0.000   0.000  -0.000   0.000   0.000
 21.251  35.755  -0.000   0.000   0.000  -0.000   0.000   0.000
 -0.000  -0.000  -3.234   0.000   0.000  -5.794   0.000   0.000
  0.000   0.000   0.000  -3.238   0.000   0.000  -5.800   0.000
  0.000   0.000   0.000   0.000  -3.234   0.000   0.000  -5.794
 -0.000  -0.000  -5.794   0.000   0.000 -10.358   0.000   0.000
  0.000   0.000   0.000  -5.800   0.000   0.000 -10.368   0.000
  0.000   0.000   0.000   0.000  -5.794   0.000   0.000 -10.358
 total augmentation occupancy for first ion, spin component:           1
  9.643  -3.599   0.000  -0.002  -0.001  -0.000   0.001   0.000
 -3.599   1.374  -0.000   0.001   0.000   0.000  -0.000  -0.000
  0.000  -0.000   8.197  -0.009   0.001  -2.896   0.004  -0.000
 -0.002   0.001  -0.009   3.784  -0.000   0.004  -1.107   0.000
 -0.001   0.000   0.001  -0.000   8.196  -0.000   0.000  -2.895
 -0.000   0.000  -2.896   0.004  -0.000   1.036  -0.001   0.000
  0.001  -0.000   0.004  -1.107   0.000  -0.001   0.329  -0.000
  0.000  -0.000  -0.000   0.000  -2.895   0.000  -0.000   1.035


------------------------ aborting loop because EDIFF is reached ----------------------------------------


    FORLOC:  cpu time    0.1083: real time    0.1090
    FORNL :  cpu time    2.8907: real time    2.9265
    FORCOR:  cpu time    1.5138: real time    1.5213
    OFIELD:  cpu time    0.0023: real time    0.0024

 VOLUME and BASIS-vectors are now :
 -----------------------------------------------------------------------------
  energy-cutoff  :     1000.00
  volume of cell :     2631.08
      direct lattice vectors                 reciprocal lattice vectors
    12.325000000  0.000000000  0.000000000     0.081135903  0.046843835  0.000000000
    -6.162500000 10.673763102  0.000000000     0.000000000  0.093687670  0.000000000
     0.000000000  0.000000000 20.000000000     0.000000000  0.000000000  0.050000000

  length of vectors
    12.325000000 12.325000000 20.000000000     0.093687670  0.093687670  0.050000000


 FORCES acting on ions:
    Electron-Ion                     Ewald-Force                    Non-Local-Force
 -----------------------------------------------------------------------------------------------
   0.143E+01 0.124E+01 0.119E+02   -.143E+01 -.124E+01 -.119E+02   -.347E-02 0.548E-02 0.603E-02
   0.199E+01 0.999E+00 0.133E+02   -.199E+01 -.101E+01 -.133E+02   -.314E-02 0.113E-01 -.595E-02
   0.799E+00 0.219E+01 0.138E+02   -.808E+00 -.220E+01 -.138E+02   0.943E-02 0.180E-01 -.190E-02
   0.101E+01 0.146E+01 0.168E+02   -.102E+01 -.147E+01 -.168E+02   0.191E-01 0.145E-01 -.154E-01
   0.155E+01 0.371E+00 0.123E+02   -.154E+01 -.381E+00 -.123E+02   -.116E-01 0.841E-02 0.506E-02
   0.157E+01 -.346E+00 0.125E+02   -.157E+01 0.340E+00 -.125E+02   -.108E-01 0.141E-01 -.224E-02
   0.196E+01 0.749E+00 0.165E+02   -.197E+01 -.759E+00 -.165E+02   0.134E-01 -.405E-02 -.427E-02
   0.195E+01 -.680E+00 0.177E+02   -.195E+01 0.674E+00 -.176E+02   -.543E-02 0.741E-02 -.352E-02
   -.991E+00 0.204E+01 0.141E+02   0.984E+00 -.205E+01 -.141E+02   0.164E-01 -.775E-02 -.414E-02
   -.136E+01 0.114E+01 0.169E+02   0.135E+01 -.115E+01 -.169E+02   -.144E-01 0.238E-01 0.603E-02
   0.408E+00 -.422E+00 0.112E+02   -.403E+00 0.423E+00 -.112E+02   0.206E-02 -.433E-02 0.174E-02
   0.372E+00 -.312E+00 0.109E+02   -.378E+00 0.319E+00 -.109E+02   0.525E-03 -.683E-02 0.813E-02
   0.685E+00 -.159E+01 0.187E+02   -.690E+00 0.158E+01 -.187E+02   0.307E-01 0.498E-03 0.836E-03
   0.423E+00 -.226E+01 0.152E+02   -.426E+00 0.227E+01 -.152E+02   0.270E-02 0.616E-02 -.135E-01
   -.142E+01 0.858E+00 0.118E+02   0.142E+01 -.862E+00 -.118E+02   0.641E-02 -.108E-02 0.102E-01
   -.185E+01 0.539E+00 0.123E+02   0.185E+01 -.540E+00 -.123E+02   -.304E-02 0.728E-02 -.689E-02
   -.267E+00 -.913E-01 0.104E+02   0.267E+00 0.102E+00 -.104E+02   0.594E-02 -.176E-01 0.324E-02
   0.109E+00 0.907E+00 0.107E+02   -.115E+00 -.899E+00 -.107E+02   0.619E-02 -.120E-01 0.103E-01
   -.360E+00 -.218E+01 0.134E+02   0.363E+00 0.219E+01 -.134E+02   -.664E-03 -.106E-01 0.106E-02
   -.200E+00 -.132E+01 0.115E+02   0.207E+00 0.132E+01 -.115E+02   -.152E-01 -.102E-01 0.153E-02
   0.202E+01 -.884E+00 0.143E+02   -.201E+01 0.879E+00 -.143E+02   -.336E-02 0.676E-02 -.184E-01
   0.141E+01 -.115E+01 0.130E+02   -.142E+01 0.115E+01 -.130E+02   -.408E-02 0.638E-02 0.289E-02
   -.364E+00 0.635E+00 0.191E+02   0.352E+00 -.641E+00 -.191E+02   -.457E-03 0.223E-01 0.538E-02
   -.488E+00 -.102E+01 0.190E+02   0.487E+00 0.101E+01 -.189E+02   0.174E-01 -.721E-02 -.939E-02
   0.769E+00 -.281E+00 0.113E+02   -.771E+00 0.285E+00 -.113E+02   0.104E-01 -.103E-01 -.365E-02
   0.194E+00 0.674E+00 0.112E+02   -.205E+00 -.668E+00 -.112E+02   0.103E-01 -.459E-02 0.850E-02
   -.224E+01 0.273E+00 0.147E+02   0.224E+01 -.279E+00 -.147E+02   0.176E-01 0.126E-01 0.304E-02
   -.212E+01 -.852E+00 0.140E+02   0.213E+01 0.852E+00 -.141E+02   -.949E-02 0.821E-02 -.668E-04
   0.802E+00 -.163E+01 0.132E+02   -.803E+00 0.163E+01 -.132E+02   0.512E-02 0.114E-02 -.865E-02
   0.695E-01 -.714E+00 0.117E+02   -.714E-01 0.719E+00 -.117E+02   -.543E-02 -.112E-02 0.260E-02
   -.152E+01 -.155E+01 0.155E+02   0.152E+01 0.155E+01 -.155E+02   -.126E-01 -.103E-01 -.120E-01
   -.109E+01 -.206E+01 0.134E+02   0.110E+01 0.207E+01 -.134E+02   -.670E-02 -.129E-01 0.354E-02
   0.108E+00 0.425E+00 0.108E+02   -.956E-01 -.429E+00 -.108E+02   -.131E-01 -.148E-03 0.929E-02
   0.267E+00 0.393E+00 0.111E+02   -.261E+00 -.398E+00 -.111E+02   -.153E-01 0.132E-01 -.690E-03
   -.968E+00 0.172E+00 0.114E+02   0.977E+00 -.177E+00 -.114E+02   -.448E-02 0.257E-02 0.114E-01
   -.866E+00 -.389E+00 0.113E+02   0.865E+00 0.389E+00 -.113E+02   -.517E-02 0.176E-02 0.314E-02
   -.164E+01 -.868E+00 0.118E+02   0.165E+01 0.874E+00 -.119E+02   -.188E-02 -.950E-02 0.825E-02
   -.109E+01 -.857E+00 0.111E+02   0.109E+01 0.868E+00 -.111E+02   -.399E-02 -.148E-01 0.105E-01
   -.982E+00 -.124E+01 0.114E+02   0.986E+00 0.125E+01 -.114E+02   -.899E-02 -.182E-01 0.657E-02
   -.142E+00 -.333E+00 0.108E+02   0.149E+00 0.341E+00 -.108E+02   -.614E-02 -.135E-01 0.810E-02
   0.371E+00 0.941E+00 0.108E+02   -.373E+00 -.935E+00 -.108E+02   -.322E-02 -.844E-02 0.699E-02
   0.112E+01 0.172E+01 0.120E+02   -.112E+01 -.173E+01 -.120E+02   0.253E-03 -.399E-04 0.693E-02
   0.108E+00 0.155E+01 0.112E+02   -.114E+00 -.155E+01 -.112E+02   0.153E-01 -.661E-02 0.281E-02
   -.302E-01 0.227E+01 0.131E+02   0.204E-01 -.227E+01 -.131E+02   0.814E-02 0.289E-02 0.582E-02
   -.302E+00 0.552E+00 0.115E+02   0.297E+00 -.555E+00 -.115E+02   0.139E-01 -.407E-02 0.142E-02
   -.110E+01 0.135E+01 0.122E+02   0.109E+01 -.135E+01 -.122E+02   0.480E-02 -.830E-04 -.840E-03
   -.282E+00 -.677E+00 0.113E+02   0.289E+00 0.677E+00 -.113E+02   -.437E-02 -.328E-02 0.683E-02
   -.602E+00 0.220E+00 0.108E+02   0.609E+00 -.218E+00 -.108E+02   -.166E-01 0.240E-02 -.253E-02
   0.741E-01 -.413E+00 0.108E+02   -.651E-01 0.419E+00 -.108E+02   -.105E-01 -.114E-01 0.699E-02
   0.677E+00 0.474E+00 0.108E+02   -.669E+00 -.472E+00 -.108E+02   -.163E-01 0.223E-02 0.378E-02
   0.487E-02 0.143E-01 -.161E+03   -.628E-02 -.185E-01 0.161E+03   -.172E-01 0.174E-01 -.685E-02
   -.228E+03 0.155E+03 -.253E+03   0.279E+03 -.190E+03 0.256E+03   -.527E+02 0.359E+02 -.352E+01
   0.228E+03 -.155E+03 -.233E+03   -.279E+03 0.190E+03 0.230E+03   0.527E+02 -.359E+02 0.319E+01
 -----------------------------------------------------------------------------------------------
   -.162E-01 0.156E-01 0.334E+00   0.000E+00 0.568E-13 0.568E-13   -.510E-02 -.468E-02 -.277E+00
 
 
 POSITION                                       TOTAL-FORCE (eV/Angst)
 -----------------------------------------------------------------------------------
     11.98348      0.00342      0.01417        -0.006535      0.006277     -0.004080
     -0.34154      1.42665      0.01100        -0.013526      0.018392     -0.005157
      2.12355      0.00315      0.01249         0.009926      0.017807     -0.009823
      2.12326      1.42653      0.00641         0.027220      0.018767     -0.009450
     10.75099      2.13819      0.01213        -0.007436      0.016894     -0.000872
     -1.57382      3.56123      0.01110        -0.026093      0.014002     -0.001517
      0.89078      2.13854      0.00548         0.010219      0.009025      0.002713
      0.89099      3.56147      0.00181        -0.010958      0.009532      0.013203
      4.58864      0.00346      0.01135         0.026416     -0.018392     -0.004335
      4.58894      1.42623      0.00646         0.002611      0.028143      0.015187
      9.51854      4.27281      0.01369         0.016936      0.001324      0.000475
     -2.80632      5.69591      0.01434        -0.005701     -0.017657      0.000623
      2.12300      4.27302      0.00000         0.023196      0.015821      0.022237
      2.12335      5.69594      0.00581         0.004097      0.005675     -0.000406
      7.05344      0.00333      0.01399         0.008769     -0.015501     -0.000060
      7.05353      1.42635      0.01368        -0.002646      0.014095     -0.005269
      8.28610      6.40752      0.01601         0.019174     -0.021772     -0.001734
     -4.03885      7.83070      0.01636         0.007549     -0.019487     -0.002237
      3.35586      6.40753      0.01007        -0.014571     -0.010792     -0.001640
      3.35599      7.83072      0.01320        -0.018194     -0.007883     -0.001011
     -0.34146      4.27290      0.00723         0.000602      0.019732     -0.004551
     -0.34138      5.69591      0.00946        -0.012490      0.004095      0.001463
      3.35624      2.13791      0.00222        -0.006114      0.031177      0.017452
      3.35573      3.56155      0.00139         0.031531     -0.009194      0.009419
     -1.57395      6.40758      0.01311         0.025664     -0.014791     -0.001029
     -1.57385      7.83068      0.01438         0.010769     -0.002860     -0.000426
      5.82093      2.13784      0.01033         0.020505      0.007229     -0.000598
      5.82114      3.56097      0.01156         0.001291      0.002226     -0.005487
      0.89092      6.40755      0.00907         0.004332      0.000541     -0.003417
      0.89106      7.83068      0.01235        -0.007388      0.009066      0.002709
      4.58871      4.27293      0.00850        -0.023688     -0.002951     -0.010683
      4.58852      5.69606      0.01149         0.001561     -0.023735     -0.004470
      9.51845      0.00337      0.01490        -0.018075     -0.006036     -0.001008
      9.51855      1.42644      0.01438        -0.031081      0.020969     -0.000581
      8.28593      2.13803      0.01453         0.002330      0.000501      0.002197
      8.28613      3.56115      0.01464        -0.012396     -0.003606     -0.001393
      7.05356      4.27269      0.01457         0.004160     -0.008541      0.000730
      7.05362      5.69588      0.01553        -0.001771     -0.029519     -0.000791
      5.82112      6.40755      0.01489        -0.015992     -0.018376     -0.001289
      5.82102      7.83073      0.01579        -0.004828     -0.020524     -0.002329
      7.05363      8.54227      0.01631        -0.003121     -0.010884     -0.001596
     -5.27149      9.96549      0.01495         0.001644     -0.001156     -0.005715
     -2.80638      8.54234      0.01558         0.029766     -0.015535     -0.002427
     -2.80627      9.96553      0.01362         0.017307      0.004531     -0.006029
     -0.34149      8.54239      0.01378         0.023746     -0.016977     -0.000470
     -0.34138      9.96550      0.01354         0.011593      0.010856     -0.001531
      2.12343      8.54232      0.01336        -0.013037     -0.013741      0.000260
      2.12354      9.96544      0.01469        -0.024432      0.014409     -0.002026
      4.58846      8.54235      0.01505        -0.020486     -0.016602     -0.000263
      4.58853      9.96550      0.01517        -0.025095      0.007708     -0.001670
      3.04930      2.68154      7.07107        -0.034721      0.022107      0.038892
      4.02070      2.02068      7.13549        -1.658768      1.108326     -0.112044
      2.07767      3.34267      7.01161         1.676226     -1.112716      0.091854
 -----------------------------------------------------------------------------------
    total drift:                               -0.021313      0.010897      0.056248


--------------------------------------------------------------------------------------------------------



  FREE ENERGIE OF THE ION-ELECTRON SYSTEM (eV)
  ---------------------------------------------------
  free  energy   TOTEN  =      -531.06567422 eV

  energy  without entropy=     -531.06567422  energy(sigma->0) =     -531.06567422
 


--------------------------------------------------------------------------------------------------------


    POTLOK:  cpu time    1.6826: real time    1.6924


--------------------------------------------------------------------------------------------------------


 writing wavefunctions
     LOOP+:  cpu time  666.7998: real time  673.0859
    4ORBIT:  cpu time    0.0000: real time    0.0000

 total amount of memory used by VASP MPI-rank0   556209. kBytes
=======================================================================

   base      :      30000. kBytes
   nonl-proj :     184518. kBytes
   fftplans  :      31725. kBytes
   grid      :     282516. kBytes
   one-center:        162. kBytes
   wavefun   :      27288. kBytes
 
  
  
 General timing and accounting informations for this job:
 ========================================================
  
                  Total CPU time used (sec):      700.180
                            User time (sec):      680.526
                          System time (sec):       19.654
                         Elapsed time (sec):      708.080
  
                   Maximum memory used (kb):     1040360.
                   Average memory used (kb):          N/A
  
                          Minor page faults:       191416
                          Major page faults:           97
                 Voluntary context switches:         3715
