 vasp.6.2.1 16May21 (build Nov 06 2021 14:46:37) complex                        
  
 executed on             LinuxIFC date 2025.03.03  19:12:56
 running on  112 total cores
 distrk:  each k-point on   56 cores,    2 groups
 distr:  one band on NCORE=   1 cores,   56 groups


--------------------------------------------------------------------------------------------------------


 INCAR:
   ALGO = Conjugate
   KPAR = 2
   NCORE = 32
   ISMEAR = 0
   SIGMA = 0.01
   PREC = Accurate
   EDIFF = 1E-7
   ENCUT = 1000
   ISIF = 0
   METAGGA = SCAN
   LASPH = .TRUE.
   SYMPREC = 1E-7

 POTCAR:    PAW_PBE C_h 06Feb2004                 
 POTCAR:    PAW_PBE O_h 06Feb2004                 
 -----------------------------------------------------------------------------
|                                                                             |
|           W    W    AA    RRRRR   N    N  II  N    N   GGGG   !!!           |
|           W    W   A  A   R    R  NN   N  II  NN   N  G    G  !!!           |
|           W    W  A    A  R    R  N N  N  II  N N  N  G       !!!           |
|           W WW W  AAAAAA  RRRRR   N  N N  II  N  N N  G  GGG   !            |
|           WW  WW  A    A  R   R   N   NN  II  N   NN  G    G                |
|           W    W  A    A  R    R  N    N  II  N    N   GGGG   !!!           |
|                                                                             |
|     The value NCORE = 32 specified in the INCAR file was overwritten,       |
|     because it was not compatible with the 56 processes available:          |
|     NCORE = 1                                                               |
|     was used instead, please check that this makes sense for your           |
|     machine.                                                                |
|                                                                             |
 -----------------------------------------------------------------------------

 -----------------------------------------------------------------------------
|                                                                             |
|           W    W    AA    RRRRR   N    N  II  N    N   GGGG   !!!           |
|           W    W   A  A   R    R  NN   N  II  NN   N  G    G  !!!           |
|           W    W  A    A  R    R  N N  N  II  N N  N  G       !!!           |
|           W WW W  AAAAAA  RRRRR   N  N N  II  N  N N  G  GGG   !            |
|           WW  WW  A    A  R   R   N   NN  II  N   NN  G    G                |
|           W    W  A    A  R    R  N    N  II  N    N   GGGG   !!!           |
|                                                                             |
|     For optimal performance we recommend to set                             |
|       NCORE = 2 up to number-of-cores-per-socket                            |
|     NCORE specifies how many cores store one orbital (NPAR=cpu/NCORE).      |
|     This setting can greatly improve the performance of VASP for DFT.       |
|     The default, NCORE=1 might be grossly inefficient on modern             |
|     multi-core architectures or massively parallel machines. Do your        |
|     own testing! More info at https://www.vasp.at/wiki/index.php/NCORE      |
|     Unfortunately you need to use the default for GW and RPA                |
|     calculations (for HF NCORE is supported but not extensively tested      |
|     yet).                                                                   |
|                                                                             |
 -----------------------------------------------------------------------------

 POTCAR:    PAW_PBE C_h 06Feb2004                 
   VRHFIN =C: s2p2                                                                                  
   LEXCH  = PE                                                                                      
   EATOM  =   147.1560 eV,   10.8157 Ry                                                             
                                                                                                    
   TITEL  = PAW_PBE C_h 06Feb2004                                                                   
   LULTRA =        F    use ultrasoft PP ?                                                          
   IUNSCR =        1    unscreen: 0-lin 1-nonlin 2-no                                               
   RPACOR =    0.800    partial core radius                                                         
   POMASS =   12.011; ZVAL   =    4.000    mass and valenz                                          
   RCORE  =    1.100    outmost cutoff radius                                                       
   RWIGS  =    1.630; RWIGS  =    0.863    wigner-seitz radius (au A)                               
   ENMAX  =  700.000; ENMIN  =  500.000 eV                                                          
   ICORE  =        2    local potential                                                             
   LCOR   =        T    correct aug charges                                                         
   LPAW   =        T    paw PP                                                                      
   EAUG   =  946.768                                                                                
   DEXC   =    0.000                                                                                
   RMAX   =    1.128    core radius for proj-oper                                                   
   RAUG   =    1.300    factor for augmentation sphere                                              
   RDEP   =    1.162    radius for radial grids                                                     
   RDEPT  =    1.088    core radius for aug-charge                                                  
                                                                                                    
   Atomic configuration                                                                             
    4 entries                                                                                       
     n  l   j            E        occ.                                                              
     1  0  0.50      -273.3789   2.0000                                                             
     2  0  0.50       -13.7508   2.0000                                                             
     2  1  0.50        -5.2854   2.0000                                                             
     3  2  1.50        -5.4423   0.0000                                                             
   Description                                                                                      
     l       E           TYP  RCUT    TYP  RCUT                                                     
     0    -13.7508458     23  1.100                                                                 
     0     -8.2022199     23  1.100                                                                 
     1     -5.2854383     23  1.100                                                                 
     1      1.1560700     23  1.100                                                                 
     2     -5.4423304      7  1.100                                                                 
  local pseudopotential read in
  partial core-charges read in
  partial kinetic energy density read in
  atomic valenz-charges read in
  non local Contribution for L=           0  read in
    real space projection operators read in
  non local Contribution for L=           0  read in
    real space projection operators read in
  non local Contribution for L=           1  read in
    real space projection operators read in
  non local Contribution for L=           1  read in
    real space projection operators read in
    PAW grid and wavefunctions read in
 
   number of l-projection  operators is LMAX  =           4
   number of lm-projection operators is LMMAX =           8
 
 POTCAR:    PAW_PBE O_h 06Feb2004                 
   VRHFIN =O: s2p4                                                                                  
   LEXCH  = PE                                                                                      
   EATOM  =   432.3788 eV,   31.7789 Ry                                                             
                                                                                                    
   TITEL  = PAW_PBE O_h 06Feb2004                                                                   
   LULTRA =        F    use ultrasoft PP ?                                                          
   IUNSCR =        1    unscreen: 0-lin 1-nonlin 2-no                                               
   RPACOR =    0.800    partial core radius                                                         
   POMASS =   16.000; ZVAL   =    6.000    mass and valenz                                          
   RCORE  =    1.100    outmost cutoff radius                                                       
   RWIGS  =    1.400; RWIGS  =    0.741    wigner-seitz radius (au A)                               
   ENMAX  =  700.000; ENMIN  =  500.000 eV                                                          
   ICORE  =        2    local potential                                                             
   LCOR   =        T    correct aug charges                                                         
   LPAW   =        T    paw PP                                                                      
   EAUG   =  888.804                                                                                
   DEXC   =    0.000                                                                                
   RMAX   =    1.128    core radius for proj-oper                                                   
   RAUG   =    1.300    factor for augmentation sphere                                              
   RDEP   =    1.125    radius for radial grids                                                     
   RDEPT  =    1.088    core radius for aug-charge                                                  
                                                                                                    
   Atomic configuration                                                                             
    4 entries                                                                                       
     n  l   j            E        occ.                                                              
     1  0  0.50      -514.6923   2.0000                                                             
     2  0  0.50       -23.9615   2.0000                                                             
     2  1  0.50        -9.0305   4.0000                                                             
     3  2  1.50        -9.5241   0.0000                                                             
   Description                                                                                      
     l       E           TYP  RCUT    TYP  RCUT                                                     
     0    -23.9615319     23  1.100                                                                 
     0    -25.3221145     23  1.100                                                                 
     1     -9.0304911     23  1.100                                                                 
     1     -5.4802209     23  1.100                                                                 
     2     -9.5240782      7  1.100                                                                 
  local pseudopotential read in
  partial core-charges read in
  partial kinetic energy density read in
  atomic valenz-charges read in
  non local Contribution for L=           0  read in
    real space projection operators read in
  non local Contribution for L=           0  read in
    real space projection operators read in
  non local Contribution for L=           1  read in
    real space projection operators read in
  non local Contribution for L=           1  read in
    real space projection operators read in
    PAW grid and wavefunctions read in
 
   number of l-projection  operators is LMAX  =           4
   number of lm-projection operators is LMMAX =           8
 
 -----------------------------------------------------------------------------
|                                                                             |
|               ----> ADVICE to this user running VASP <----                  |
|                                                                             |
|     You have a (more or less) 'large supercell' and for larger cells it     |
|     might be more efficient to use real-space projection operators.         |
|     Therefore, try LREAL= Auto in the INCAR file.                           |
|     Mind: For very accurate calculation, you might also keep the            |
|     reciprocal projection scheme (i.e. LREAL=.FALSE.).                      |
|                                                                             |
 -----------------------------------------------------------------------------

  PAW_PBE C_h 06Feb2004                 :
 energy of atom  1       EATOM= -147.1560
 kinetic energy error for atom=    0.0031 (will be added to EATOM!!)
  PAW_PBE O_h 06Feb2004                 :
 energy of atom  2       EATOM= -432.3788
 kinetic energy error for atom=    0.0171 (will be added to EATOM!!)
 
 
 POSCAR:  C  O
  positions in cartesian coordinates
  No initial velocities read in

 METAGGA = SCAN     LMAXTAU =  6    LMIXTAU =  F

 exchange correlation table for  LEXCH =        8
   RHO(1)=    0.500       N(1)  =     2000
   RHO(2)=  100.500       N(2)  =     4000
 


--------------------------------------------------------------------------------------------------------


 ion  position               nearest neighbor table
   1  0.972  0.000  0.001-  50 1.42   2 1.42  42 1.42
   2  0.039  0.134  0.001-   5 1.42   7 1.42   1 1.42
   3  0.172  0.000  0.001-  42 1.42  44 1.42   4 1.42
   4  0.239  0.134  0.000-   7 1.42   3 1.42  23 1.42
   5  0.972  0.200  0.001-   6 1.42   2 1.42  34 1.42
   6  0.039  0.334  0.001-   5 1.42  21 1.42  11 1.42
   7  0.172  0.200  0.000-   8 1.42   2 1.42   4 1.42
   8  0.239  0.334  0.000-  13 1.42   7 1.42  21 1.42
   9  0.372  0.000  0.001-  10 1.42  44 1.42  46 1.42
  10  0.439  0.134  0.000-  27 1.42   9 1.42  23 1.42
  11  0.972  0.400  0.001-  12 1.42  36 1.42   6 1.42
  12  0.039  0.534  0.001-  25 1.42  11 1.42  17 1.42
  13  0.372  0.400  0.000-   8 1.42  14 1.42  24 1.42
  14  0.439  0.534  0.000-  13 1.42  29 1.42  19 1.42
  15  0.572  0.000  0.001-  46 1.42  16 1.42  48 1.42
  16  0.639  0.134  0.001-  15 1.42  35 1.42  27 1.42
  17  0.972  0.600  0.001-  38 1.42  18 1.42  12 1.42
  18  0.039  0.734  0.001-  43 1.42  41 1.42  17 1.42
  19  0.572  0.600  0.001-  14 1.42  20 1.42  32 1.42
  20  0.639  0.734  0.001-  49 1.42  19 1.42  47 1.42
  21  0.172  0.400  0.000-  22 1.42   8 1.42   6 1.42
  22  0.239  0.534  0.000-  21 1.42  29 1.42  25 1.42
  23  0.372  0.200  0.000-  10 1.42   4 1.42  24 1.42
  24  0.439  0.334  0.000-  13 1.42  31 1.42  23 1.42
  25  0.172  0.600  0.001-  26 1.42  12 1.42  22 1.42
  26  0.239  0.734  0.001-  25 1.42  45 1.42  43 1.42
  27  0.572  0.200  0.001-  10 1.42  28 1.42  16 1.42
  28  0.639  0.334  0.001-  27 1.42  37 1.42  31 1.42
  29  0.372  0.600  0.000-  22 1.42  14 1.42  30 1.42
  30  0.439  0.734  0.001-  47 1.42  29 1.42  45 1.42
  31  0.572  0.400  0.000-  32 1.42  28 1.42  24 1.42
  32  0.639  0.534  0.001-  31 1.42  39 1.42  19 1.42
  33  0.772  0.000  0.001-  34 1.42  48 1.42  50 1.42
  34  0.839  0.134  0.001-  33 1.42   5 1.42  35 1.42
  35  0.772  0.200  0.001-  36 1.42  16 1.42  34 1.42
  36  0.839  0.334  0.001-  35 1.42  11 1.42  37 1.42
  37  0.772  0.400  0.001-  28 1.42  38 1.42  36 1.42
  38  0.839  0.534  0.001-  17 1.42  37 1.42  39 1.42
  39  0.772  0.600  0.001-  40 1.42  38 1.42  32 1.42
  40  0.839  0.734  0.001-  39 1.42  49 1.42  41 1.42
  41  0.972  0.800  0.001-  18 1.42  42 1.42  40 1.42
  42  0.039  0.934  0.001-   3 1.42  41 1.42   1 1.42
  43  0.172  0.800  0.001-  18 1.42  44 1.42  26 1.42
  44  0.239  0.934  0.001-   9 1.42  43 1.42   3 1.42
  45  0.372  0.800  0.001-  26 1.42  46 1.42  30 1.42
  46  0.439  0.934  0.001-  15 1.42  45 1.42   9 1.42
  47  0.572  0.800  0.001-  30 1.42  48 1.42  20 1.42
  48  0.639  0.934  0.001-  47 1.42  33 1.42  15 1.42
  49  0.772  0.800  0.001-  50 1.42  20 1.42  40 1.42
  50  0.839  0.934  0.001-  49 1.42   1 1.42  33 1.42
  51  0.373  0.251  0.210-  52 1.18  53 1.18
  52  0.421  0.189  0.213-  51 1.18
  53  0.325  0.313  0.207-  51 1.18
 
  LATTYP: Found a hexagonal cell.
 ALAT       =    12.3250000000
 C/A-ratio  =     1.6227180527
  
  Lattice vectors:
  
 A1 = (  12.3250000000,   0.0000000000,   0.0000000000)
 A2 = (  -6.1625000000,  10.6737631016,   0.0000000000)
 A3 = (   0.0000000000,   0.0000000000,  20.0000000000)


Analysis of symmetry for initial positions (statically):
=====================================================================
 Subroutine PRICEL returns:
 Original cell was already a primitive cell.
 

 Routine SETGRP: Setting up the symmetry group for a 
 hexagonal supercell.


 Subroutine GETGRP returns: Found  1 space group operations
 (whereof  1 operations were pure point group operations)
 out of a pool of 24 trial point group operations.


The static configuration has the point symmetry C_1 .


Analysis of symmetry for dynamics (positions and initial velocities):
=====================================================================
 Subroutine PRICEL returns:
 Original cell was already a primitive cell.
 

 Routine SETGRP: Setting up the symmetry group for a 
 hexagonal supercell.


 Subroutine GETGRP returns: Found  1 space group operations
 (whereof  1 operations were pure point group operations)
 out of a pool of 24 trial point group operations.


The dynamic configuration has the point symmetry C_1 .


 Subroutine INISYM returns: Found  1 space group operations
 (whereof  1 operations are pure point group operations),
 and found     1 'primitive' translations


----------------------------------------------------------------------------------------

                                     Primitive cell                                     

  volume of cell :    2631.0826

  direct lattice vectors                    reciprocal lattice vectors
    12.325000000  0.000000000  0.000000000     0.081135903  0.046843835  0.000000000
    -6.162500000 10.673763102  0.000000000     0.000000000  0.093687670  0.000000000
     0.000000000  0.000000000 20.000000000     0.000000000  0.000000000  0.050000000

  length of vectors
    12.325000000 12.325000000 20.000000000     0.093687670  0.093687670  0.050000000

  position of ions in fractional coordinates (direct lattice)
     0.972450841  0.000320818  0.000708389
     0.039118382  0.133659505  0.000550216
     0.172443627  0.000295449  0.000624535
     0.239096278  0.133647917  0.000320585
     0.972452058  0.200322012  0.000606523
     0.039128360  0.333643771  0.000555187
     0.172451764  0.200354552  0.000273959
     0.239124359  0.333665720  0.000090325
     0.372465565  0.000324403  0.000567391
     0.439137473  0.133619939  0.000322923
     0.972449824  0.400309362  0.000684513
     0.039124981  0.533636789  0.000716763
     0.372416176  0.400329481  0.000000000
     0.439099602  0.533638981  0.000290518
     0.572443676  0.000312125  0.000699475
     0.639110207  0.133631751  0.000684093
     0.972452703  0.600305653  0.000800361
     0.039124495  0.733640359  0.000818141
     0.572433471  0.600306242  0.000503618
     0.639111888  0.733641879  0.000659881
     0.172454630  0.400318228  0.000361306
     0.239120185  0.533636548  0.000473136
     0.372459750  0.200295993  0.000111246
     0.439107096  0.333673419  0.000069702
     0.172452155  0.600311506  0.000655425
     0.239123371  0.733638574  0.000718912
     0.572431082  0.200289171  0.000516621
     0.639112773  0.333618630  0.000577970
     0.372439808  0.600308022  0.000453556
     0.439116090  0.733637858  0.000617737
     0.572469358  0.400320504  0.000424897
     0.639119408  0.533650873  0.000574513
     0.772445723  0.000315427  0.000745201
     0.839116277  0.133640203  0.000719132
     0.772440513  0.200307432  0.000726291
     0.839120241  0.333635728  0.000731834
     0.772446320  0.400298367  0.000728722
     0.839118980  0.533633964  0.000776376
     0.772456143  0.600308173  0.000744639
     0.839115033  0.733643180  0.000789390
     0.972455313  0.800305582  0.000815291
     0.039114714  0.933643289  0.000747563
     0.172457971  0.800312211  0.000779216
     0.239134551  0.933647193  0.000681063
     0.372451396  0.800316674  0.000689249
     0.439124489  0.933644769  0.000676788
     0.572441101  0.800310054  0.000668168
     0.639115067  0.933638985  0.000734556
     0.772445098  0.800313187  0.000752577
     0.839116614  0.933644338  0.000758538
     0.373021009  0.251226878  0.210224104
     0.420879805  0.189313152  0.213445197
     0.325156981  0.313167186  0.207251361

  ion indices of the primitive-cell ions
   primitive index   ion index
                 1           1
                 2           2
                 3           3
                 4           4
                 5           5
                 6           6
                 7           7
                 8           8
                 9           9
                10          10
                11          11
                12          12
                13          13
                14          14
                15          15
                16          16
                17          17
                18          18
                19          19
                20          20
                21          21
                22          22
                23          23
                24          24
                25          25
                26          26
                27          27
                28          28
                29          29
                30          30
                31          31
                32          32
                33          33
                34          34
                35          35
                36          36
                37          37
                38          38
                39          39
                40          40
                41          41
                42          42
                43          43
                44          44
                45          45
                46          46
                47          47
                48          48
                49          49
                50          50
                51          51
                52          52
                53          53

----------------------------------------------------------------------------------------

 
 
 KPOINTS: auto                                    

Automatic generation of k-mesh.
 Grid dimensions read from file:
 generate k-points for:    1    1    1

 Generating k-lattice:

  Cartesian coordinates                     Fractional coordinates (reciprocal lattice)
     0.081135903  0.046843835  0.000000000     1.000000000 -0.000000000  0.000000000
     0.000000000  0.093687670  0.000000000     0.000000000  1.000000000  0.000000000
     0.000000000  0.000000000  0.050000000     0.000000000  0.000000000  1.000000000

  Length of vectors
     0.093687670  0.093687670  0.050000000

  Shift w.r.t. Gamma in fractional coordinates (k-lattice)
     0.000000000  0.000000000  0.000000000

 
 Subroutine IBZKPT returns following result:
 ===========================================
 
 Found      1 irreducible k-points:
 
 Following reciprocal coordinates:
            Coordinates               Weight
  0.000000  0.000000  0.000000      1.000000
 
 Following cartesian coordinates:
            Coordinates               Weight
  0.000000  0.000000  0.000000      1.000000
 


--------------------------------------------------------------------------------------------------------




 Dimension of arrays:
   k-points           NKPTS =      1   k-points in BZ     NKDIM =      1   number of bands    NBANDS=    168
   number of dos      NEDOS =    301   number of ions     NIONS =     53
   non local maximal  LDIM  =      4   non local SUM 2l+1 LMDIM =      8
   total plane-waves  NPLWV = ******
   max r-space proj   IRMAX =      1   max aug-charges    IRDMAX=   9736
   dimension x,y,z NGX =   128 NGY =  128 NGZ =  210
   dimension x,y,z NGXF=   256 NGYF=  256 NGZF=  420
   support grid    NGXF=   256 NGYF=  256 NGZF=  420
   ions per type =              51   2
   NGX,Y,Z   is equivalent  to a cutoff of  17.27, 17.27, 17.46 a.u.
   NGXF,Y,Z  is equivalent  to a cutoff of  34.53, 34.53, 34.91 a.u.

 SYSTEM =  unknown system                          
 POSCAR =   C  O                                   

 Startparameter for this run:
   NWRITE =      2    write-flag & timer
   PREC   = accura    normal or accurate (medium, high low for compatibility)
   ISTART =      0    job   : 0-new  1-cont  2-samecut
   ICHARG =      2    charge: 1-file 2-atom 10-const
   ISPIN  =      1    spin polarized calculation?
   LNONCOLLINEAR =      F non collinear calculations
   LSORBIT =      F    spin-orbit coupling
   INIWAV =      1    electr: 0-lowe 1-rand  2-diag
   LASPH  =      T    aspherical Exc in radial PAW
 Electronic Relaxation 1
   ENCUT  = 1000.0 eV  73.50 Ry    8.57 a.u.  31.78 31.78 51.57*2*pi/ulx,y,z
   ENINI  = 1000.0     initial cutoff
   ENAUG  =  946.8 eV  augmentation charge cutoff
   NELM   =     60;   NELMIN=  2; NELMDL= -5     # of ELM steps 
   EDIFF  = 0.1E-06   stopping-criterion for ELM
   LREAL  =      F    real-space projection
   NLSPLINE    = F    spline interpolate recip. space projectors
   LCOMPAT=      F    compatible to vasp.4.4
   GGA_COMPAT  = T    GGA compatible to vasp.4.4-vasp.4.6
   LMAXPAW     = -100 max onsite density
   LMAXMIX     =    2 max onsite mixed and CHGCAR
   VOSKOWN=      0    Vosko Wilk Nusair interpolation
   ROPT   =    0.00000   0.00000
 Ionic relaxation
   EDIFFG = 0.1E-05   stopping-criterion for IOM
   NSW    =      0    number of steps for IOM
   NBLOCK =      1;   KBLOCK =      1    inner block; outer block 
   IBRION =     -1    ionic relax: 0-MD 1-quasi-New 2-CG
   NFREE  =      0    steps in history (QN), initial steepest desc. (CG)
   ISIF   =      0    stress and relaxation
   IWAVPR =     10    prediction:  0-non 1-charg 2-wave 3-comb
   ISYM   =      2    0-nonsym 1-usesym 2-fastsym
   LCORR  =      T    Harris-Foulkes like correction to forces

   POTIM  = 0.5000    time-step for ionic-motion
   TEIN   =    0.0    initial temperature
   TEBEG  =    0.0;   TEEND  =   0.0 temperature during run
   SMASS  =  -3.00    Nose mass-parameter (am)
   estimated Nose-frequenzy (Omega)   =  0.10E-29 period in steps = 0.13E+47 mass=  -0.347E-26a.u.
   SCALEE = 1.0000    scale energy and forces
   NPACO  =    256;   APACO  = 16.0  distance and # of slots for P.C.
   PSTRESS=    0.0 pullay stress

  Mass of Ions in am
   POMASS =  12.01 16.00
  Ionic Valenz
   ZVAL   =   4.00  6.00
  Atomic Wigner-Seitz radii
   RWIGS  =  -1.00 -1.00
  virtual crystal weights 
   VCA    =   1.00  1.00
   NELECT =     216.0000    total number of electrons
   NUPDOWN=      -1.0000    fix difference up-down

 DOS related values:
   EMIN   =  10.00;   EMAX   =-10.00  energy-range for DOS
   EFERMI =   0.00
   ISMEAR =     0;   SIGMA  =   0.01  broadening in eV -4-tet -1-fermi 0-gaus

 Electronic relaxation 2 (details)
   IALGO  =     58    algorithm
   LDIAG  =      T    sub-space diagonalisation (order eigenvalues)
   LSUBROT=      F    optimize rotation matrix (better conditioning)
   TURBO    =      0    0=normal 1=particle mesh
   IRESTART =      0    0=no restart 2=restart with 2 vectors
   NREBOOT  =      0    no. of reboots
   NMIN     =      0    reboot dimension
   EREF     =   0.00    reference energy to select bands
   IMIX   =      4    mixing-type and parameters
     AMIX     =   0.40;   BMIX     =  1.00
     AMIX_MAG =   1.60;   BMIX_MAG =  1.00
     AMIN     =   0.10
     WC   =   100.;   INIMIX=   1;  MIXPRE=   1;  MAXMIX= -45

 Intra band minimization:
   WEIMIN = 0.0000     energy-eigenvalue tresh-hold
   EBREAK =  0.15E-09  absolut break condition
   DEPER  =   0.30     relativ break condition  

   TIME   =   0.40     timestep for ELM

  volume/ion in A,a.u.               =      49.64       335.01
  Fermi-wavevector in a.u.,A,eV,Ry     =   0.711510  1.344560  6.887909  0.506247
  Thomas-Fermi vector in A             =   1.798641
 
 Write flags
   LWAVE        =      T    write WAVECAR
   LDOWNSAMPLE  =      F    k-point downsampling of WAVECAR
   LCHARG       =      T    write CHGCAR
   LVTOT        =      F    write LOCPOT, total local potential
   LVHAR        =      F    write LOCPOT, Hartree potential only
   LELF         =      F    write electronic localiz. function (ELF)
   LORBIT       =      0    0 simple, 1 ext, 2 COOP (PROOUT), +10 PAW based schemes


 Dipole corrections
   LMONO  =      F    monopole corrections only (constant potential shift)
   LDIPOL =      F    correct potential (dipole corrections)
   IDIPOL =      0    1-x, 2-y, 3-z, 4-all directions 
   EPSILON=  1.0000000 bulk dielectric constant

 Exchange correlation treatment:
   GGA     =    --    GGA type
   LEXCH   =     8    internal setting for exchange type
   VOSKOWN=      0    Vosko Wilk Nusair interpolation
   LHFCALC =     F    Hartree Fock is set to
   LHFONE  =     F    Hartree Fock one center treatment
   AEXX    =    0.0000 exact exchange contribution

 Linear response parameters
   LEPSILON=     F    determine dielectric tensor
   LRPA    =     F    only Hartree local field effects (RPA)
   LNABLA  =     F    use nabla operator in PAW spheres
   LVEL    =     F    velocity operator in full k-point grid
   LINTERFAST=   F  fast interpolation
   KINTER  =     0    interpolate to denser k-point grid
   CSHIFT  =0.1000    complex shift for real part using Kramers Kronig
   OMEGAMAX=  -1.0    maximum frequency
   DEG_THRESHOLD= 0.2000000E-02 threshold for treating states as degnerate
   RTIME   =   -0.100 relaxation time in fs
  (WPLASMAI=    0.000 imaginary part of plasma frequency in eV, 0.658/RTIME)
   DFIELD  = 0.0000000 0.0000000 0.0000000 field for delta impulse in time
 
 Orbital magnetization related:
   ORBITALMAG=     F  switch on orbital magnetization
   LCHIMAG   =     F  perturbation theory with respect to B field
   DQ        =  0.001000  dq finite difference perturbation B field
   LLRAUG    =     F  two centre corrections for induced B field



--------------------------------------------------------------------------------------------------------


 Static calculation
 charge density and potential will be updated during run
 non-spin polarized calculation
 Conjugate gradient for all bands (Freysoldt, et al. PRB 79, 241103 (2009))
 preconditioned conjugated gradient                                        
 perform sub-space diagonalisation
    before iterative eigenvector-optimisation
 modified Broyden-mixing scheme, WC =      100.0
 initial mixing is a Kerker type mixing with AMIX =  0.4000 and BMIX =      1.0000
 Hartree-type preconditioning will be used
 using additional bands           60
 reciprocal scheme for non local part
 use partial core corrections
 no Harris-corrections to forces 
 use gradient corrections 
 use of overlap-Matrix (Vanderbilt PP)
 Gauss-broadening in eV      SIGMA  =   0.01


--------------------------------------------------------------------------------------------------------


  energy-cutoff  :     1000.00
  volume of cell :     2631.08
      direct lattice vectors                 reciprocal lattice vectors
    12.325000000  0.000000000  0.000000000     0.081135903  0.046843835  0.000000000
    -6.162500000 10.673763102  0.000000000     0.000000000  0.093687670  0.000000000
     0.000000000  0.000000000 20.000000000     0.000000000  0.000000000  0.050000000

  length of vectors
    12.325000000 12.325000000 20.000000000     0.093687670  0.093687670  0.050000000


 
 k-points in units of 2pi/SCALE and weight: auto                                    
   0.00000000  0.00000000  0.00000000       1.000
 
 k-points in reciprocal lattice and weights: auto                                    
   0.00000000  0.00000000  0.00000000       1.000
 
 position of ions in fractional coordinates (direct lattice) 
   0.97245084  0.00032082  0.00070839
   0.03911838  0.13365950  0.00055022
   0.17244363  0.00029545  0.00062454
   0.23909628  0.13364792  0.00032058
   0.97245206  0.20032201  0.00060652
   0.03912836  0.33364377  0.00055519
   0.17245176  0.20035455  0.00027396
   0.23912436  0.33366572  0.00009033
   0.37246557  0.00032440  0.00056739
   0.43913747  0.13361994  0.00032292
   0.97244982  0.40030936  0.00068451
   0.03912498  0.53363679  0.00071676
   0.37241618  0.40032948  0.00000000
   0.43909960  0.53363898  0.00029052
   0.57244368  0.00031213  0.00069947
   0.63911021  0.13363175  0.00068409
   0.97245270  0.60030565  0.00080036
   0.03912449  0.73364036  0.00081814
   0.57243347  0.60030624  0.00050362
   0.63911189  0.73364188  0.00065988
   0.17245463  0.40031823  0.00036131
   0.23912018  0.53363655  0.00047314
   0.37245975  0.20029599  0.00011125
   0.43910710  0.33367342  0.00006970
   0.17245216  0.60031151  0.00065542
   0.23912337  0.73363857  0.00071891
   0.57243108  0.20028917  0.00051662
   0.63911277  0.33361863  0.00057797
   0.37243981  0.60030802  0.00045356
   0.43911609  0.73363786  0.00061774
   0.57246936  0.40032050  0.00042490
   0.63911941  0.53365087  0.00057451
   0.77244572  0.00031543  0.00074520
   0.83911628  0.13364020  0.00071913
   0.77244051  0.20030743  0.00072629
   0.83912024  0.33363573  0.00073183
   0.77244632  0.40029837  0.00072872
   0.83911898  0.53363396  0.00077638
   0.77245614  0.60030817  0.00074464
   0.83911503  0.73364318  0.00078939
   0.97245531  0.80030558  0.00081529
   0.03911471  0.93364329  0.00074756
   0.17245797  0.80031221  0.00077922
   0.23913455  0.93364719  0.00068106
   0.37245140  0.80031667  0.00068925
   0.43912449  0.93364477  0.00067679
   0.57244110  0.80031005  0.00066817
   0.63911507  0.93363899  0.00073456
   0.77244510  0.80031319  0.00075258
   0.83911661  0.93364434  0.00075854
   0.37302101  0.25122688  0.21022410
   0.42087980  0.18931315  0.21344520
   0.32515698  0.31316719  0.20725136
 
 position of ions in cartesian coordinates  (Angst):
  11.98347958  0.00342433  0.01416777
  -0.34154264  1.42664989  0.01100432
   2.12354700  0.00315355  0.01249070
   2.12325634  1.42652621  0.00641170
  10.75098721  2.13818970  0.01213047
  -1.57382270  3.56123457  0.01110375
   0.89078307  2.13853702  0.00547917
   0.89099273  3.56146885  0.00180651
   4.58863896  0.00346260  0.01134782
   4.58893648  1.42622757  0.00645846
   9.51853763  4.27280730  0.01369027
  -2.80632132  5.69591267  0.01433526
   2.12299894  4.27302204  0.00000000
   2.12335237  5.69593607  0.00581036
   7.05344483  0.00333155  0.01398950
   7.05352764  1.42635365  0.01368187
   8.28609598  6.40752033  0.01600723
  -4.03884931  7.83070339  0.01636283
   3.35585531  6.40752662  0.01007237
   3.35598594  7.83071962  0.01319763
  -0.34145776  4.27290193  0.00722612
  -0.34137895  5.69591010  0.00946273
   3.35624236  2.13791198  0.00222492
   3.35573251  3.56155103  0.00139405
  -1.57394684  6.40758280  0.01310850
  -1.57385216  7.83068434  0.01437823
   5.82093107  2.13783916  0.01033241
   5.82114012  3.56096622  0.01155939
   0.89092245  6.40754561  0.00907111
   0.89106251  7.83067670  0.01235474
   4.58870974  4.27292622  0.00849795
   4.58852320  5.69606300  0.01149026
   9.51844972  0.00336679  0.01490402
   9.51855036  1.42644387  0.01438264
   8.28593477  2.13803408  0.01452582
   8.28612680  3.56114872  0.01463668
   7.05356221  4.27268994  0.01457444
   7.05362213  5.69588251  0.01552751
   5.82112285  6.40754723  0.01489279
   5.82101669  7.83073350  0.01578780
   7.05362858  8.54227219  0.01630582
  -5.27148792  9.96548729  0.01495127
  -2.80637951  8.54234295  0.01558431
  -2.80626749  9.96552896  0.01362126
  -0.34148805  8.54239058  0.01378498
  -0.34137657  9.96550309  0.01353576
   2.12342586  8.54231992  0.01336337
   2.12354296  9.96544135  0.01469111
   4.58845581  8.54235337  0.01505154
   4.58852904  9.96549848  0.01517076
   3.04929830  2.68153618  4.20448208
   4.02070129  2.02068374  4.26890394
   2.07766701  3.34267235  4.14502721
 


--------------------------------------------------------------------------------------------------------


 k-point   1 :   0.0000 0.0000 0.0000  plane waves:  189031

 maximum and minimum number of plane-waves per node :    189031   189031

 maximum number of plane-waves:    189031
 maximum index in each direction: 
   IXMAX=   31   IYMAX=   31   IZMAX=   51
   IXMIN=  -31   IYMIN=  -31   IZMIN=  -51


 serial   3D FFT for wavefunctions
 parallel 3D FFT for charge:
    minimum data exchange during FFTs selected (reduces bandwidth)


 total amount of memory used by VASP MPI-rank0   556209. kBytes
=======================================================================

   base      :      30000. kBytes
   nonl-proj :     184518. kBytes
   fftplans  :      31725. kBytes
   grid      :     282516. kBytes
   one-center:        162. kBytes
   wavefun   :      27288. kBytes
 
     INWAV:  cpu time    0.0000: real time    0.0000
 Broyden mixing: mesh for mixing (old mesh)
   NGX = 63   NGY = 63   NGZ =103
  (NGX  =256   NGY  =256   NGZ  =420)
  gives a total of 408807 points

 initial charge density was supplied:
 charge density of overlapping atoms calculated
 number of electron     216.0000000 magnetization 
 keeping initial charge density in first step


--------------------------------------------------------------------------------------------------------


 Maximum index for augmentation-charges          459 (set IRDMAX)


--------------------------------------------------------------------------------------------------------


 First call to EWALD:  gamma=   0.128
 Maximum number of real-space cells 3x 3x 2
 Maximum number of reciprocal cells 3x 3x 4

    FEWALD:  cpu time    0.0025: real time    0.0026


--------------------------------------- Iteration      1(   1)  ---------------------------------------


    POTLOK:  cpu time    1.4693: real time    1.4795
    SETDIJ:  cpu time    0.2308: real time    0.2320
    TRIAL :  cpu time   21.6873: real time   21.9145
    CORREC:  cpu time    0.0004: real time    0.0004
    --------------------------------------------
      LOOP:  cpu time   23.4001: real time   23.6422

 eigenvalue-minimisations  :   336
 total energy-change (2. order) : 0.2413949E+04  (-0.1181209E+05)
 number of electron     216.0000000 magnetization 
 augmentation part      216.0000000 magnetization 

 Free energy of the ion-electron system (eV)
  ---------------------------------------------------
  alpha Z        PSCENC =        59.93625244
  Ewald energy   TEWEN  =     32916.94435984
  -Hartree energ DENC   =    -39092.34147548
  -exchange      EXHF   =         0.00000000
  -V(xc)+E(xc)   XCENC  =       602.84657992
  PAW double counting   =      6339.73130699    -6197.22120962
  entropy T*S    EENTRO =        -0.00000000
  eigenvalues    EBANDS =      -585.47005391
  atomic energy  EATOM  =      8369.52358910
  ---------------------------------------------------
  free energy    TOTEN  =      2413.94934929 eV

  energy without entropy =     2413.94934929  energy(sigma->0) =     2413.94934929


--------------------------------------------------------------------------------------------------------




--------------------------------------- Iteration      1(   2)  ---------------------------------------


    TRIAL :  cpu time   30.8083: real time   31.1546
    CORREC:  cpu time    0.0001: real time    0.0001
    --------------------------------------------
      LOOP:  cpu time   30.8318: real time   31.1791

 eigenvalue-minimisations  :   560
 total energy-change (2. order) :-0.2444098E+04  (-0.2314957E+04)
 number of electron     216.0000000 magnetization 
 augmentation part      216.0000000 magnetization 

 Free energy of the ion-electron system (eV)
  ---------------------------------------------------
  alpha Z        PSCENC =        59.93625244
  Ewald energy   TEWEN  =     32916.94435984
  -Hartree energ DENC   =    -39092.34147548
  -exchange      EXHF   =         0.00000000
  -V(xc)+E(xc)   XCENC  =       602.84657992
  PAW double counting   =      6339.73130699    -6197.22120962
  entropy T*S    EENTRO =        -0.00000000
  eigenvalues    EBANDS =     -3029.56851342
  atomic energy  EATOM  =      8369.52358910
  ---------------------------------------------------
  free energy    TOTEN  =       -30.14911023 eV

  energy without entropy =      -30.14911023  energy(sigma->0) =      -30.14911023


--------------------------------------------------------------------------------------------------------




--------------------------------------- Iteration      1(   3)  ---------------------------------------


    TRIAL :  cpu time   24.1252: real time   24.3193
    CORREC:  cpu time    0.0001: real time    0.0001
    --------------------------------------------
      LOOP:  cpu time   24.1714: real time   24.3661

 eigenvalue-minimisations  :   392
 total energy-change (2. order) :-0.5630756E+03  (-0.5602847E+03)
 number of electron     216.0000000 magnetization 
 augmentation part      216.0000000 magnetization 

 Free energy of the ion-electron system (eV)
  ---------------------------------------------------
  alpha Z        PSCENC =        59.93625244
  Ewald energy   TEWEN  =     32916.94435984
  -Hartree energ DENC   =    -39092.34147548
  -exchange      EXHF   =         0.00000000
  -V(xc)+E(xc)   XCENC  =       602.84657992
  PAW double counting   =      6339.73130699    -6197.22120962
  entropy T*S    EENTRO =        -0.00000000
  eigenvalues    EBANDS =     -3592.64410871
  atomic energy  EATOM  =      8369.52358910
  ---------------------------------------------------
  free energy    TOTEN  =      -593.22470552 eV

  energy without entropy =     -593.22470552  energy(sigma->0) =     -593.22470552


--------------------------------------------------------------------------------------------------------




--------------------------------------- Iteration      1(   4)  ---------------------------------------


    TRIAL :  cpu time   26.2480: real time   26.5153
    CORREC:  cpu time    0.0001: real time    0.0001
    --------------------------------------------
      LOOP:  cpu time   26.3248: real time   26.6046

 eigenvalue-minimisations  :   448
 total energy-change (2. order) :-0.2648336E+02  (-0.2632169E+02)
 number of electron     216.0000000 magnetization 
 augmentation part      216.0000000 magnetization 

 Free energy of the ion-electron system (eV)
  ---------------------------------------------------
  alpha Z        PSCENC =        59.93625244
  Ewald energy   TEWEN  =     32916.94435984
  -Hartree energ DENC   =    -39092.34147548
  -exchange      EXHF   =         0.00000000
  -V(xc)+E(xc)   XCENC  =       602.84657992
  PAW double counting   =      6339.73130699    -6197.22120962
  entropy T*S    EENTRO =        -0.00000000
  eigenvalues    EBANDS =     -3619.12747295
  atomic energy  EATOM  =      8369.52358910
  ---------------------------------------------------
  free energy    TOTEN  =      -619.70806976 eV

  energy without entropy =     -619.70806976  energy(sigma->0) =     -619.70806976


--------------------------------------------------------------------------------------------------------




--------------------------------------- Iteration      1(   5)  ---------------------------------------


    TRIAL :  cpu time   21.7025: real time   21.8739
    CORREC:  cpu time    0.0001: real time    0.0003
    CHARGE:  cpu time    2.2799: real time    2.3070
    --------------------------------------------
      LOOP:  cpu time   24.0319: real time   24.2620

 eigenvalue-minimisations  :   336
 total energy-change (2. order) :-0.9268004E+00  (-0.9262329E+00)
 number of electron     216.0000000 magnetization 
 augmentation part       -0.4301034 magnetization 

 Free energy of the ion-electron system (eV)
  ---------------------------------------------------
  alpha Z        PSCENC =        59.93625244
  Ewald energy   TEWEN  =     32916.94435984
  -Hartree energ DENC   =    -39092.34147548
  -exchange      EXHF   =         0.00000000
  -V(xc)+E(xc)   XCENC  =       602.84657992
  PAW double counting   =      6339.73130699    -6197.22120962
  entropy T*S    EENTRO =        -0.00000000
  eigenvalues    EBANDS =     -3620.05427335
  atomic energy  EATOM  =      8369.52358910
  ---------------------------------------------------
  free energy    TOTEN  =      -620.63487016 eV

  energy without entropy =     -620.63487016  energy(sigma->0) =     -620.63487016


--------------------------------------------------------------------------------------------------------




--------------------------------------- Iteration      1(   6)  ---------------------------------------


    POTLOK:  cpu time    1.4428: real time    1.4507
    SETDIJ:  cpu time    0.2367: real time    0.2376
    TRIAL :  cpu time   15.4730: real time   15.5918
    CORREC:  cpu time    7.0973: real time    7.1696
    CHARGE:  cpu time    2.2841: real time    2.3001
    --------------------------------------------
      LOOP:  cpu time   26.6150: real time   26.8326

 eigenvalue-minimisations  :     0
 total energy-change (2. order) : 0.1040844E+03  (-0.1205368E+02)
 number of electron     216.0000000 magnetization 
 augmentation part       -0.4922222 magnetization 

 Free energy of the ion-electron system (eV)
  ---------------------------------------------------
  alpha Z        PSCENC =        59.93625244
  Ewald energy   TEWEN  =     32916.94435984
  -Hartree energ DENC   =    -40423.99884761
  -exchange      EXHF   =         0.00000000
  -V(xc)+E(xc)   XCENC  =       669.74742198
  PAW double counting   =    113773.41976823  -113636.65276811
  entropy T*S    EENTRO =        -0.00000000
  eigenvalues    EBANDS =     -2245.47025685
  atomic energy  EATOM  =      8369.52358910
  ---------------------------------------------------
  free energy    TOTEN  =      -516.55048097 eV

  energy without entropy =     -516.55048097  energy(sigma->0) =     -516.55048097


--------------------------------------------------------------------------------------------------------




--------------------------------------- Iteration      1(   7)  ---------------------------------------


    POTLOK:  cpu time    1.4407: real time    1.4485
    SETDIJ:  cpu time    0.2171: real time    0.2183
    TRIAL :  cpu time   15.4915: real time   15.6105
    CORREC:  cpu time    7.0930: real time    7.1444
    CHARGE:  cpu time    2.2856: real time    2.3039
    --------------------------------------------
      LOOP:  cpu time   26.6179: real time   26.8300

 eigenvalue-minimisations  :     0
 total energy-change (2. order) :-0.1206657E+02  (-0.1597459E+01)
 number of electron     216.0000000 magnetization 
 augmentation part       -0.5230655 magnetization 

 Free energy of the ion-electron system (eV)
  ---------------------------------------------------
  alpha Z        PSCENC =        59.93625244
  Ewald energy   TEWEN  =     32916.94435984
  -Hartree energ DENC   =    -40005.72909583
  -exchange      EXHF   =         0.00000000
  -V(xc)+E(xc)   XCENC  =       649.91950441
  PAW double counting   =    132099.12321827  -131959.60563274
  entropy T*S    EENTRO =        -0.00000000
  eigenvalues    EBANDS =     -2658.72924167
  atomic energy  EATOM  =      8369.52358910
  ---------------------------------------------------
  free energy    TOTEN  =      -528.61704618 eV

  energy without entropy =     -528.61704618  energy(sigma->0) =     -528.61704618


--------------------------------------------------------------------------------------------------------




--------------------------------------- Iteration      1(   8)  ---------------------------------------


    POTLOK:  cpu time    1.4430: real time    1.4509
    SETDIJ:  cpu time    0.2188: real time    0.2196
    TRIAL :  cpu time   15.4526: real time   15.5847
    CORREC:  cpu time    7.0930: real time    7.1476
    CHARGE:  cpu time    2.2873: real time    2.3043
    --------------------------------------------
      LOOP:  cpu time   26.5318: real time   26.7456

 eigenvalue-minimisations  :     0
 total energy-change (2. order) :-0.1597995E+01  (-0.5286837E+00)
 number of electron     216.0000000 magnetization 
 augmentation part       -0.5203990 magnetization 

 Free energy of the ion-electron system (eV)
  ---------------------------------------------------
  alpha Z        PSCENC =        59.93625244
  Ewald energy   TEWEN  =     32916.94435984
  -Hartree energ DENC   =    -39976.60665953
  -exchange      EXHF   =         0.00000000
  -V(xc)+E(xc)   XCENC  =       648.30306890
  PAW double counting   =    140283.95629093  -140143.95037051
  entropy T*S    EENTRO =        -0.00000000
  eigenvalues    EBANDS =     -2688.32157240
  atomic energy  EATOM  =      8369.52358910
  ---------------------------------------------------
  free energy    TOTEN  =      -530.21504124 eV

  energy without entropy =     -530.21504124  energy(sigma->0) =     -530.21504124


--------------------------------------------------------------------------------------------------------




--------------------------------------- Iteration      1(   9)  ---------------------------------------


    POTLOK:  cpu time    1.4435: real time    1.4532
    SETDIJ:  cpu time    0.2208: real time    0.2215
    TRIAL :  cpu time   15.4582: real time   15.5906
    CORREC:  cpu time    7.0744: real time    7.1606
    CHARGE:  cpu time    2.2863: real time    2.3034
    --------------------------------------------
      LOOP:  cpu time   26.5368: real time   26.7881

 eigenvalue-minimisations  :     0
 total energy-change (2. order) :-0.5282221E+00  (-0.2081040E+00)
 number of electron     216.0000000 magnetization 
 augmentation part       -0.5145148 magnetization 

 Free energy of the ion-electron system (eV)
  ---------------------------------------------------
  alpha Z        PSCENC =        59.93625244
  Ewald energy   TEWEN  =     32916.94435984
  -Hartree energ DENC   =    -39983.99022736
  -exchange      EXHF   =         0.00000000
  -V(xc)+E(xc)   XCENC  =       648.04336680
  PAW double counting   =    146595.41371380  -146455.20601578
  entropy T*S    EENTRO =        -0.00000000
  eigenvalues    EBANDS =     -2681.40830221
  atomic energy  EATOM  =      8369.52358910
  ---------------------------------------------------
  free energy    TOTEN  =      -530.74326337 eV

  energy without entropy =     -530.74326337  energy(sigma->0) =     -530.74326337


--------------------------------------------------------------------------------------------------------




--------------------------------------- Iteration      1(  10)  ---------------------------------------


    POTLOK:  cpu time    1.4408: real time    1.4485
    SETDIJ:  cpu time    0.2280: real time    0.2288
    TRIAL :  cpu time   15.4664: real time   15.5905
    CORREC:  cpu time    7.1162: real time    7.1638
    CHARGE:  cpu time    2.2882: real time    2.3073
    --------------------------------------------
      LOOP:  cpu time   26.6256: real time   26.8275

 eigenvalue-minimisations  :     0
 total energy-change (2. order) :-0.2077866E+00  (-0.8958996E-01)
 number of electron     216.0000000 magnetization 
 augmentation part       -0.5078135 magnetization 

 Free energy of the ion-electron system (eV)
  ---------------------------------------------------
  alpha Z        PSCENC =        59.93625244
  Ewald energy   TEWEN  =     32916.94435984
  -Hartree energ DENC   =    -39983.31396364
  -exchange      EXHF   =         0.00000000
  -V(xc)+E(xc)   XCENC  =       647.81877223
  PAW double counting   =    148975.64234664  -148835.33620906
  entropy T*S    EENTRO =        -0.00000000
  eigenvalues    EBANDS =     -2682.16619751
  atomic energy  EATOM  =      8369.52358910
  ---------------------------------------------------
  free energy    TOTEN  =      -530.95104996 eV

  energy without entropy =     -530.95104996  energy(sigma->0) =     -530.95104996


--------------------------------------------------------------------------------------------------------




--------------------------------------- Iteration      1(  11)  ---------------------------------------


    POTLOK:  cpu time    1.4487: real time    1.4562
    SETDIJ:  cpu time    0.2238: real time    0.2245
    TRIAL :  cpu time   15.4577: real time   15.5843
    CORREC:  cpu time    7.1083: real time    7.1589
    CHARGE:  cpu time    2.2875: real time    2.3046
    --------------------------------------------
      LOOP:  cpu time   26.5918: real time   26.7956

 eigenvalue-minimisations  :     0
 total energy-change (2. order) :-0.8940207E-01  (-0.3499139E-01)
 number of electron     216.0000000 magnetization 
 augmentation part       -0.5039462 magnetization 

 Free energy of the ion-electron system (eV)
  ---------------------------------------------------
  alpha Z        PSCENC =        59.93625244
  Ewald energy   TEWEN  =     32916.94435984
  -Hartree energ DENC   =    -39977.37766330
  -exchange      EXHF   =         0.00000000
  -V(xc)+E(xc)   XCENC  =       647.66590370
  PAW double counting   =    148767.28883461  -148626.98282675
  entropy T*S    EENTRO =        -0.00000000
  eigenvalues    EBANDS =     -2688.03890168
  atomic energy  EATOM  =      8369.52358910
  ---------------------------------------------------
  free energy    TOTEN  =      -531.04045203 eV

  energy without entropy =     -531.04045203  energy(sigma->0) =     -531.04045203


--------------------------------------------------------------------------------------------------------




--------------------------------------- Iteration      1(  12)  ---------------------------------------


    POTLOK:  cpu time    1.4443: real time    1.4545
    SETDIJ:  cpu time    0.2227: real time    0.2236
    TRIAL :  cpu time   15.4728: real time   15.5881
    CORREC:  cpu time    7.1006: real time    7.1551
    CHARGE:  cpu time    2.3003: real time    2.3168
    --------------------------------------------
      LOOP:  cpu time   26.6196: real time   26.8205

 eigenvalue-minimisations  :     0
 total energy-change (2. order) :-0.3496281E-01  (-0.1108626E-01)
 number of electron     216.0000000 magnetization 
 augmentation part       -0.5039169 magnetization 

 Free energy of the ion-electron system (eV)
  ---------------------------------------------------
  alpha Z        PSCENC =        59.93625244
  Ewald energy   TEWEN  =     32916.94435984
  -Hartree energ DENC   =    -39972.80129622
  -exchange      EXHF   =         0.00000000
  -V(xc)+E(xc)   XCENC  =       647.56708568
  PAW double counting   =    147975.36243637  -147835.08476534
  entropy T*S    EENTRO =        -0.00000000
  eigenvalues    EBANDS =     -2692.52307672
  atomic energy  EATOM  =      8369.52358910
  ---------------------------------------------------
  free energy    TOTEN  =      -531.07541484 eV

  energy without entropy =     -531.07541484  energy(sigma->0) =     -531.07541484


--------------------------------------------------------------------------------------------------------




--------------------------------------- Iteration      1(  13)  ---------------------------------------


    POTLOK:  cpu time    1.4640: real time    1.4718
    SETDIJ:  cpu time    0.2049: real time    0.2055
    TRIAL :  cpu time   15.4675: real time   15.5878
    CORREC:  cpu time    7.1205: real time    7.1706
    CHARGE:  cpu time    2.2827: real time    2.2990
    --------------------------------------------
      LOOP:  cpu time   26.5975: real time   26.7944

 eigenvalue-minimisations  :     0
 total energy-change (2. order) :-0.1109739E-01  (-0.3127429E-02)
 number of electron     216.0000000 magnetization 
 augmentation part       -0.5045976 magnetization 

 Free energy of the ion-electron system (eV)
  ---------------------------------------------------
  alpha Z        PSCENC =        59.93625244
  Ewald energy   TEWEN  =     32916.94435984
  -Hartree energ DENC   =    -39971.33387775
  -exchange      EXHF   =         0.00000000
  -V(xc)+E(xc)   XCENC  =       647.51703157
  PAW double counting   =    147408.27320181  -147268.00911202
  entropy T*S    EENTRO =        -0.00000000
  eigenvalues    EBANDS =     -2693.93795723
  atomic energy  EATOM  =      8369.52358910
  ---------------------------------------------------
  free energy    TOTEN  =      -531.08651223 eV

  energy without entropy =     -531.08651223  energy(sigma->0) =     -531.08651223


--------------------------------------------------------------------------------------------------------




--------------------------------------- Iteration      1(  14)  ---------------------------------------


    POTLOK:  cpu time    1.4499: real time    1.4582
    SETDIJ:  cpu time    0.2203: real time    0.2211
    TRIAL :  cpu time   15.4498: real time   15.5902
    CORREC:  cpu time    7.0916: real time    7.1590
    CHARGE:  cpu time    2.2853: real time    2.3084
    --------------------------------------------
      LOOP:  cpu time   26.5615: real time   26.8035

 eigenvalue-minimisations  :     0
 total energy-change (2. order) :-0.3132887E-02  (-0.8065710E-03)
 number of electron     216.0000000 magnetization 
 augmentation part       -0.5048908 magnetization 

 Free energy of the ion-electron system (eV)
  ---------------------------------------------------
  alpha Z        PSCENC =        59.93625244
  Ewald energy   TEWEN  =     32916.94435984
  -Hartree energ DENC   =    -39971.33847266
  -exchange      EXHF   =         0.00000000
  -V(xc)+E(xc)   XCENC  =       647.51492951
  PAW double counting   =    147142.79177370  -147002.53387060
  entropy T*S    EENTRO =        -0.00000000
  eigenvalues    EBANDS =     -2693.92820645
  atomic energy  EATOM  =      8369.52358910
  ---------------------------------------------------
  free energy    TOTEN  =      -531.08964512 eV

  energy without entropy =     -531.08964512  energy(sigma->0) =     -531.08964512


--------------------------------------------------------------------------------------------------------




--------------------------------------- Iteration      1(  15)  ---------------------------------------


    POTLOK:  cpu time    1.4457: real time    1.4554
    SETDIJ:  cpu time    0.2230: real time    0.2237
    TRIAL :  cpu time   15.4768: real time   15.6012
    CORREC:  cpu time    7.1044: real time    7.1605
    CHARGE:  cpu time    2.2844: real time    2.3005
    --------------------------------------------
      LOOP:  cpu time   26.5890: real time   26.8007

 eigenvalue-minimisations  :     0
 total energy-change (2. order) :-0.8069415E-03  (-0.2307803E-03)
 number of electron     216.0000000 magnetization 
 augmentation part       -0.5050462 magnetization 

 Free energy of the ion-electron system (eV)
  ---------------------------------------------------
  alpha Z        PSCENC =        59.93625244
  Ewald energy   TEWEN  =     32916.94435984
  -Hartree energ DENC   =    -39971.26560862
  -exchange      EXHF   =         0.00000000
  -V(xc)+E(xc)   XCENC  =       647.51679246
  PAW double counting   =    147038.70717273  -146898.45199053
  entropy T*S    EENTRO =        -0.00000000
  eigenvalues    EBANDS =     -2694.00101947
  atomic energy  EATOM  =      8369.52358910
  ---------------------------------------------------
  free energy    TOTEN  =      -531.09045206 eV

  energy without entropy =     -531.09045206  energy(sigma->0) =     -531.09045206


--------------------------------------------------------------------------------------------------------




--------------------------------------- Iteration      1(  16)  ---------------------------------------


    POTLOK:  cpu time    1.4529: real time    1.4605
    SETDIJ:  cpu time    0.2204: real time    0.2211
    TRIAL :  cpu time   15.4326: real time   15.5938
    CORREC:  cpu time    7.1215: real time    7.1712
    CHARGE:  cpu time    2.2826: real time    2.2988
    --------------------------------------------
      LOOP:  cpu time   26.5429: real time   26.7888

 eigenvalue-minimisations  :     0
 total energy-change (2. order) :-0.2312472E-03  (-0.8507448E-04)
 number of electron     216.0000000 magnetization 
 augmentation part       -0.5050926 magnetization 

 Free energy of the ion-electron system (eV)
  ---------------------------------------------------
  alpha Z        PSCENC =        59.93625244
  Ewald energy   TEWEN  =     32916.94435984
  -Hartree energ DENC   =    -39971.17222126
  -exchange      EXHF   =         0.00000000
  -V(xc)+E(xc)   XCENC  =       647.51497659
  PAW double counting   =    146979.48555978  -146839.23082801
  entropy T*S    EENTRO =        -0.00000000
  eigenvalues    EBANDS =     -2694.09237179
  atomic energy  EATOM  =      8369.52358910
  ---------------------------------------------------
  free energy    TOTEN  =      -531.09068331 eV

  energy without entropy =     -531.09068331  energy(sigma->0) =     -531.09068331


--------------------------------------------------------------------------------------------------------




--------------------------------------- Iteration      1(  17)  ---------------------------------------


    POTLOK:  cpu time    1.4510: real time    1.4587
    SETDIJ:  cpu time    0.2228: real time    0.2236
    TRIAL :  cpu time   15.4680: real time   15.5869
    CORREC:  cpu time    7.0959: real time    7.1553
    CHARGE:  cpu time    2.2859: real time    2.3061
    --------------------------------------------
      LOOP:  cpu time   26.5653: real time   26.7758

 eigenvalue-minimisations  :     0
 total energy-change (2. order) :-0.8398053E-04  (-0.3908936E-04)
 number of electron     216.0000000 magnetization 
 augmentation part       -0.5051150 magnetization 

 Free energy of the ion-electron system (eV)
  ---------------------------------------------------
  alpha Z        PSCENC =        59.93625244
  Ewald energy   TEWEN  =     32916.94435984
  -Hartree energ DENC   =    -39971.31543322
  -exchange      EXHF   =         0.00000000
  -V(xc)+E(xc)   XCENC  =       647.52311955
  PAW double counting   =    146934.97528859  -146794.72132458
  entropy T*S    EENTRO =        -0.00000000
  eigenvalues    EBANDS =     -2693.95661902
  atomic energy  EATOM  =      8369.52358910
  ---------------------------------------------------
  free energy    TOTEN  =      -531.09076729 eV

  energy without entropy =     -531.09076729  energy(sigma->0) =     -531.09076729


--------------------------------------------------------------------------------------------------------




--------------------------------------- Iteration      1(  18)  ---------------------------------------


    POTLOK:  cpu time    1.4415: real time    1.4564
    SETDIJ:  cpu time    0.2192: real time    0.2200
    TRIAL :  cpu time   15.4688: real time   15.5891
    CORREC:  cpu time    7.1110: real time    7.1659
    CHARGE:  cpu time    2.2919: real time    2.3109
    --------------------------------------------
      LOOP:  cpu time   26.5689: real time   26.8072

 eigenvalue-minimisations  :     0
 total energy-change (2. order) :-0.3754589E-04  (-0.1672152E-04)
 number of electron     216.0000000 magnetization 
 augmentation part       -0.5051579 magnetization 

 Free energy of the ion-electron system (eV)
  ---------------------------------------------------
  alpha Z        PSCENC =        59.93625244
  Ewald energy   TEWEN  =     32916.94435984
  -Hartree energ DENC   =    -39971.41012077
  -exchange      EXHF   =         0.00000000
  -V(xc)+E(xc)   XCENC  =       647.52747918
  PAW double counting   =    146917.85953615  -146777.60543858
  entropy T*S    EENTRO =        -0.00000000
  eigenvalues    EBANDS =     -2693.86646220
  atomic energy  EATOM  =      8369.52358910
  ---------------------------------------------------
  free energy    TOTEN  =      -531.09080483 eV

  energy without entropy =     -531.09080483  energy(sigma->0) =     -531.09080483


--------------------------------------------------------------------------------------------------------




--------------------------------------- Iteration      1(  19)  ---------------------------------------


    POTLOK:  cpu time    1.4488: real time    1.4570
    SETDIJ:  cpu time    0.2303: real time    0.2310
    TRIAL :  cpu time   15.4593: real time   15.5891
    CORREC:  cpu time    7.1076: real time    7.1609
    CHARGE:  cpu time    2.2675: real time    2.3043
    --------------------------------------------
      LOOP:  cpu time   26.5555: real time   26.7871

 eigenvalue-minimisations  :     0
 total energy-change (2. order) :-0.1635341E-04  (-0.7037269E-05)
 number of electron     216.0000000 magnetization 
 augmentation part       -0.5051633 magnetization 

 Free energy of the ion-electron system (eV)
  ---------------------------------------------------
  alpha Z        PSCENC =        59.93625244
  Ewald energy   TEWEN  =     32916.94435984
  -Hartree energ DENC   =    -39971.40514577
  -exchange      EXHF   =         0.00000000
  -V(xc)+E(xc)   XCENC  =       647.52629069
  PAW double counting   =    146925.68566942  -146785.43079761
  entropy T*S    EENTRO =        -0.00000000
  eigenvalues    EBANDS =     -2693.87103930
  atomic energy  EATOM  =      8369.52358910
  ---------------------------------------------------
  free energy    TOTEN  =      -531.09082119 eV

  energy without entropy =     -531.09082119  energy(sigma->0) =     -531.09082119


--------------------------------------------------------------------------------------------------------




--------------------------------------- Iteration      1(  20)  ---------------------------------------


    POTLOK:  cpu time    1.4503: real time    1.4586
    SETDIJ:  cpu time    0.2171: real time    0.2178
    TRIAL :  cpu time   15.4636: real time   15.5933
    CORREC:  cpu time    7.1299: real time    7.1796
    CHARGE:  cpu time    2.3277: real time    2.3472
    --------------------------------------------
      LOOP:  cpu time   26.6187: real time   26.8493

 eigenvalue-minimisations  :     0
 total energy-change (2. order) :-0.6639719E-05  (-0.1697106E-05)
 number of electron     216.0000000 magnetization 
 augmentation part       -0.5051632 magnetization 

 Free energy of the ion-electron system (eV)
  ---------------------------------------------------
  alpha Z        PSCENC =        59.93625244
  Ewald energy   TEWEN  =     32916.94435984
  -Hartree energ DENC   =    -39971.43675227
  -exchange      EXHF   =         0.00000000
  -V(xc)+E(xc)   XCENC  =       647.52729609
  PAW double counting   =    146938.92793041  -146798.67294088
  entropy T*S    EENTRO =        -0.00000000
  eigenvalues    EBANDS =     -2693.84056256
  atomic energy  EATOM  =      8369.52358910
  ---------------------------------------------------
  free energy    TOTEN  =      -531.09082783 eV

  energy without entropy =     -531.09082783  energy(sigma->0) =     -531.09082783


--------------------------------------------------------------------------------------------------------




--------------------------------------- Iteration      1(  21)  ---------------------------------------


    POTLOK:  cpu time    1.4481: real time    1.4559
    SETDIJ:  cpu time    0.2210: real time    0.2218
    TRIAL :  cpu time   15.4624: real time   15.5908
    CORREC:  cpu time    7.0966: real time    7.1567
    CHARGE:  cpu time    2.2725: real time    2.3036
    --------------------------------------------
      LOOP:  cpu time   26.5423: real time   26.7794

 eigenvalue-minimisations  :     0
 total energy-change (2. order) :-0.1719280E-05  (-0.5921552E-06)
 number of electron     216.0000000 magnetization 
 augmentation part       -0.5051563 magnetization 

 Free energy of the ion-electron system (eV)
  ---------------------------------------------------
  alpha Z        PSCENC =        59.93625244
  Ewald energy   TEWEN  =     32916.94435984
  -Hartree energ DENC   =    -39971.43246811
  -exchange      EXHF   =         0.00000000
  -V(xc)+E(xc)   XCENC  =       647.52669215
  PAW double counting   =    146944.01299258  -146803.75796000
  entropy T*S    EENTRO =        -0.00000000
  eigenvalues    EBANDS =     -2693.84428755
  atomic energy  EATOM  =      8369.52358910
  ---------------------------------------------------
  free energy    TOTEN  =      -531.09082954 eV

  energy without entropy =     -531.09082954  energy(sigma->0) =     -531.09082954


--------------------------------------------------------------------------------------------------------




--------------------------------------- Iteration      1(  22)  ---------------------------------------


    POTLOK:  cpu time    1.4514: real time    1.4591
    SETDIJ:  cpu time    0.2213: real time    0.2221
    TRIAL :  cpu time   15.4650: real time   15.5822
    CORREC:  cpu time    7.1161: real time    7.1727
    CHARGE:  cpu time    2.2876: real time    2.3063
    --------------------------------------------
      LOOP:  cpu time   26.5814: real time   26.7882

 eigenvalue-minimisations  :     0
 total energy-change (2. order) :-0.5520124E-06  (-0.2472147E-06)
 number of electron     216.0000000 magnetization 
 augmentation part       -0.5051485 magnetization 

 Free energy of the ion-electron system (eV)
  ---------------------------------------------------
  alpha Z        PSCENC =        59.93625244
  Ewald energy   TEWEN  =     32916.94435984
  -Hartree energ DENC   =    -39971.42633657
  -exchange      EXHF   =         0.00000000
  -V(xc)+E(xc)   XCENC  =       647.52633713
  PAW double counting   =    146945.29405225  -146805.03906573
  entropy T*S    EENTRO =        -0.00000000
  eigenvalues    EBANDS =     -2693.85001857
  atomic energy  EATOM  =      8369.52358910
  ---------------------------------------------------
  free energy    TOTEN  =      -531.09083010 eV

  energy without entropy =     -531.09083010  energy(sigma->0) =     -531.09083010


--------------------------------------------------------------------------------------------------------




--------------------------------------- Iteration      1(  23)  ---------------------------------------


    POTLOK:  cpu time    1.4490: real time    1.4574
    SETDIJ:  cpu time    0.2328: real time    0.2335
    TRIAL :  cpu time   15.4801: real time   15.5994
    CORREC:  cpu time    7.1002: real time    7.1632
    CHARGE:  cpu time    2.2984: real time    2.3175
    --------------------------------------------
      LOOP:  cpu time   26.6759: real time   26.8887

 eigenvalue-minimisations  :     0
 total energy-change (2. order) :-0.2112647E-06  (-0.9181110E-07)
 number of electron     216.0000000 magnetization 
 augmentation part       -0.5051461 magnetization 

 Free energy of the ion-electron system (eV)
  ---------------------------------------------------
  alpha Z        PSCENC =        59.93625244
  Ewald energy   TEWEN  =     32916.94435984
  -Hartree energ DENC   =    -39971.42254220
  -exchange      EXHF   =         0.00000000
  -V(xc)+E(xc)   XCENC  =       647.52621436
  PAW double counting   =    146945.67426340  -146805.41934478
  entropy T*S    EENTRO =        -0.00000000
  eigenvalues    EBANDS =     -2693.85362247
  atomic energy  EATOM  =      8369.52358910
  ---------------------------------------------------
  free energy    TOTEN  =      -531.09083031 eV

  energy without entropy =     -531.09083031  energy(sigma->0) =     -531.09083031


--------------------------------------------------------------------------------------------------------




--------------------------------------- Iteration      1(  24)  ---------------------------------------


    POTLOK:  cpu time    1.4479: real time    1.4556
    SETDIJ:  cpu time    0.2266: real time    0.2273
    TRIAL :  cpu time   15.4729: real time   15.5947
    CORREC:  cpu time    7.1167: real time    7.1668
    EDDIAG:  cpu time    3.1947: real time    3.2252
    CHARGE:  cpu time    2.2875: real time    2.3063
    --------------------------------------------
      LOOP:  cpu time   29.7870: real time   30.0180

 eigenvalue-minimisations  :     0
 total energy-change (2. order) :-0.7462222E-07  (-0.3343498E-07)
 number of electron     216.0000000 magnetization 
 augmentation part       -0.5051450 magnetization 

 Free energy of the ion-electron system (eV)
  ---------------------------------------------------
  alpha Z        PSCENC =        59.93625244
  Ewald energy   TEWEN  =     32916.94435984
  -Hartree energ DENC   =    -39971.42026871
  -exchange      EXHF   =         0.00000000
  -V(xc)+E(xc)   XCENC  =       647.52615181
  PAW double counting   =    146945.78698835  -146805.53209156
  entropy T*S    EENTRO =        -0.00000000
  eigenvalues    EBANDS =     -2693.85581166
  atomic energy  EATOM  =      8369.52358910
  ---------------------------------------------------
  free energy    TOTEN  =      -531.09083038 eV

  energy without entropy =     -531.09083038  energy(sigma->0) =     -531.09083038


--------------------------------------------------------------------------------------------------------


  average scaling for gradient   0.9950


 average (electrostatic) potential at core
  the test charge radii are     0.5770  0.5955
  (the norm of the test charge is              1.0000)
       1 -87.7281       2 -87.7245       3 -87.7311       4 -87.7348       5 -87.7201
       6 -87.7169       7 -87.7290       8 -87.7209       9 -87.7217      10 -87.7277
      11 -87.7165      12 -87.7195      13 -87.7266      14 -87.7177      15 -87.7154
      16 -87.7188      17 -87.7215      18 -87.7254      19 -87.7242      20 -87.7205
      21 -87.7174      22 -87.7134      23 -87.7354      24 -87.7332      25 -87.7181
      26 -87.7188      27 -87.7190      28 -87.7267      29 -87.7187      30 -87.7147
      31 -87.7278      32 -87.7251      33 -87.7216      34 -87.7199      35 -87.7154
      36 -87.7203      37 -87.7186      38 -87.7244      39 -87.7243      40 -87.7256
      41 -87.7268      42 -87.7287      43 -87.7229      44 -87.7269      45 -87.7180
      46 -87.7174      47 -87.7202      48 -87.7180      49 -87.7253      50 -87.7240
      51 -91.8078      52-123.9319      53-123.9377
 
 
 
 E-fermi :  -4.0513     XC(G=0):  -2.3394     alpha+bet : -2.1113

 Fermi energy:        -4.0512964213

 k-point     1 :       0.0000    0.0000    0.0000
  band No.  band energies     occupation 
      1     -28.8659      2.00000
      2     -27.8400      2.00000
      3     -23.2307      2.00000
      4     -22.2482      2.00000
      5     -22.2466      2.00000
      6     -22.2438      2.00000
      7     -22.2431      2.00000
      8     -22.2410      2.00000
      9     -22.2408      2.00000
     10     -20.3128      2.00000
     11     -20.3127      2.00000
     12     -20.3121      2.00000
     13     -20.3115      2.00000
     14     -20.3113      2.00000
     15     -20.3110      2.00000
     16     -19.3771      2.00000
     17     -19.3768      2.00000
     18     -19.3765      2.00000
     19     -19.3763      2.00000
     20     -19.3761      2.00000
     21     -19.3755      2.00000
     22     -17.1573      2.00000
     23     -17.1571      2.00000
     24     -17.1563      2.00000
     25     -17.1556      2.00000
     26     -17.1534      2.00000
     27     -17.1532      2.00000
     28     -15.9972      2.00000
     29     -15.9970      2.00000
     30     -15.9962      2.00000
     31     -15.9960      2.00000
     32     -15.9955      2.00000
     33     -15.9954      2.00000
     34     -14.6046      2.00000
     35     -14.6044      2.00000
     36     -14.6042      2.00000
     37     -14.6036      2.00000
     38     -14.6035      2.00000
     39     -14.6022      2.00000
     40     -12.8198      2.00000
     41     -12.1460      2.00000
     42     -12.1458      2.00000
     43     -12.1453      2.00000
     44     -12.1452      2.00000
     45     -12.1446      2.00000
     46     -12.1445      2.00000
     47     -11.9284      2.00000
     48     -11.9283      2.00000
     49     -11.9268      2.00000
     50     -11.9266      2.00000
     51     -11.9247      2.00000
     52     -11.9243      2.00000
     53     -11.5433      2.00000
     54     -11.2877      2.00000
     55     -11.2845      2.00000
     56     -10.5905      2.00000
     57     -10.4813      2.00000
     58     -10.4811      2.00000
     59     -10.4801      2.00000
     60     -10.4798      2.00000
     61     -10.4794      2.00000
     62     -10.4793      2.00000
     63      -9.4247      2.00000
     64      -9.4215      2.00000
     65      -9.4163      2.00000
     66      -9.4160      2.00000
     67      -9.4130      2.00000
     68      -9.4125      2.00000
     69      -9.1814      2.00000
     70      -9.1810      2.00000
     71      -9.1808      2.00000
     72      -9.1804      2.00000
     73      -9.1803      2.00000
     74      -9.1793      2.00000
     75      -9.1788      2.00000
     76      -9.1786      2.00000
     77      -9.1784      2.00000
     78      -9.1770      2.00000
     79      -9.1767      2.00000
     80      -9.1764      2.00000
     81      -7.6923      2.00000
     82      -7.6896      2.00000
     83      -7.4753      2.00000
     84      -7.4743      2.00000
     85      -7.4733      2.00000
     86      -7.4729      2.00000
     87      -7.4698      2.00000
     88      -7.4693      2.00000
     89      -7.1791      2.00000
     90      -7.1786      2.00000
     91      -7.1751      2.00000
     92      -7.1741      2.00000
     93      -7.1738      2.00000
     94      -7.1736      2.00000
     95      -6.2349      2.00000
     96      -6.2330      2.00000
     97      -6.2323      2.00000
     98      -6.2300      2.00000
     99      -6.2296      2.00000
    100      -6.2286      2.00000
    101      -5.9574      2.00000
    102      -5.9551      2.00000
    103      -4.1368      2.00000
    104      -4.1361      2.00000
    105      -4.1349      2.00000
    106      -4.1343      2.00000
    107      -4.1308      2.00000
    108      -4.1306      2.00000
    109      -1.1611      0.00000
    110      -1.1608      0.00000
    111      -1.1575      0.00000
    112      -1.1573      0.00000
    113      -1.1564      0.00000
    114      -1.1560      0.00000
    115       0.8173      0.00000
    116       0.8184      0.00000
    117       0.8200      0.00000
    118       0.8221      0.00000
    119       0.8230      0.00000
    120       0.8265      0.00000
    121       0.8427      0.00000
    122       1.4540      0.00000
    123       1.5746      0.00000
    124       1.5830      0.00000
    125       1.9320      0.00000
    126       2.0435      0.00000
    127       2.2498      0.00000
    128       2.3281      0.00000
    129       2.3334      0.00000
    130       2.3382      0.00000
    131       2.3552      0.00000
    132       2.6964      0.00000
    133       2.6970      0.00000
    134       2.7000      0.00000
    135       2.7009      0.00000
    136       2.7012      0.00000
    137       2.7013      0.00000
    138       2.7227      0.00000
    139       2.9226      0.00000
    140       3.0002      0.00000
    141       3.0979      0.00000
    142       3.1100      0.00000
    143       3.1139      0.00000
    144       3.1390      0.00000
    145       3.2176      0.00000
    146       3.2193      0.00000
    147       3.2526      0.00000
    148       3.2726      0.00000
    149       3.2779      0.00000
    150       3.3307      0.00000
    151       3.3902      0.00000
    152       4.4306      0.00000
    153       4.7524      0.00000
    154       4.8173      0.00000
    155       4.8810      0.00000
    156       4.9040      0.00000
    157       5.2789      0.00000
    158       5.2868      0.00000
    159       5.2942      0.00000
    160       5.3022      0.00000
    161       5.3056      0.00000
    162       5.3063      0.00000
    163       5.3069      0.00000
    164       5.3070      0.00000
    165       5.4393      0.00000
    166       5.4896      0.00000
    167       5.5626      0.00000
    168       5.6359      0.00000


--------------------------------------------------------------------------------------------------------


 soft charge-density along one line, spin component           1
         0         1         2         3         4         5         6         7         8         9
 total charge-density along one line
 
 pseudopotential strength for first ion, spin component:           1
 12.630  21.251  -0.000   0.000   0.000  -0.000   0.000   0.000
 21.251  35.755  -0.000   0.000   0.000  -0.000   0.000   0.000
 -0.000  -0.000  -3.234   0.000   0.000  -5.794   0.000   0.000
  0.000   0.000   0.000  -3.238   0.000   0.000  -5.800   0.000
  0.000   0.000   0.000   0.000  -3.234   0.000   0.000  -5.794
 -0.000  -0.000  -5.794   0.000   0.000 -10.358   0.000   0.000
  0.000   0.000   0.000  -5.800   0.000   0.000 -10.368   0.000
  0.000   0.000   0.000   0.000  -5.794   0.000   0.000 -10.358
 total augmentation occupancy for first ion, spin component:           1
  9.643  -3.598   0.000  -0.002  -0.000  -0.000   0.001   0.000
 -3.598   1.374  -0.000   0.001   0.000   0.000  -0.000  -0.000
  0.000  -0.000   8.197  -0.009   0.001  -2.896   0.004  -0.000
 -0.002   0.001  -0.009   3.784  -0.000   0.004  -1.107   0.000
 -0.000   0.000   0.001  -0.000   8.196  -0.000   0.000  -2.895
 -0.000   0.000  -2.896   0.004  -0.000   1.036  -0.001   0.000
  0.001  -0.000   0.004  -1.107   0.000  -0.001   0.329   0.000
  0.000  -0.000  -0.000   0.000  -2.895   0.000   0.000   1.035


------------------------ aborting loop because EDIFF is reached ----------------------------------------


    FORLOC:  cpu time    0.1055: real time    0.1063
    FORNL :  cpu time    2.9036: real time    2.9274
    FORCOR:  cpu time    1.5157: real time    1.5238
    OFIELD:  cpu time    0.0024: real time    0.0024

 VOLUME and BASIS-vectors are now :
 -----------------------------------------------------------------------------
  energy-cutoff  :     1000.00
  volume of cell :     2631.08
      direct lattice vectors                 reciprocal lattice vectors
    12.325000000  0.000000000  0.000000000     0.081135903  0.046843835  0.000000000
    -6.162500000 10.673763102  0.000000000     0.000000000  0.093687670  0.000000000
     0.000000000  0.000000000 20.000000000     0.000000000  0.000000000  0.050000000

  length of vectors
    12.325000000 12.325000000 20.000000000     0.093687670  0.093687670  0.050000000


 FORCES acting on ions:
    Electron-Ion                     Ewald-Force                    Non-Local-Force
 -----------------------------------------------------------------------------------------------
   0.674E+01 0.587E+01 0.217E+02   -.674E+01 -.587E+01 -.217E+02   0.235E-02 0.429E-02 0.822E-02
   0.103E+02 0.502E+01 0.267E+02   -.103E+02 -.502E+01 -.267E+02   0.800E-02 0.793E-02 -.792E-02
   0.467E+01 0.123E+02 0.312E+02   -.468E+01 -.123E+02 -.312E+02   0.849E-02 0.336E-01 0.116E-01
   0.662E+01 0.962E+01 0.436E+02   -.665E+01 -.964E+01 -.436E+02   0.335E-01 0.225E-01 0.246E-01
   0.724E+01 0.170E+01 0.219E+02   -.723E+01 -.170E+01 -.219E+02   -.744E-02 0.273E-02 -.174E-02
   0.749E+01 -.139E+01 0.222E+02   -.748E+01 0.138E+01 -.222E+02   -.139E-01 0.112E-01 -.120E-01
   0.121E+02 0.454E+01 0.393E+02   -.121E+02 -.453E+01 -.393E+02   0.325E-01 -.159E-01 0.446E-02
   0.117E+02 -.414E+01 0.410E+02   -.117E+02 0.415E+01 -.409E+02   0.101E-01 -.383E-02 -.160E-01
   -.544E+01 0.111E+02 0.314E+02   0.544E+01 -.111E+02 -.314E+02   0.544E-02 0.141E-02 -.143E-01
   -.883E+01 0.744E+01 0.421E+02   0.885E+01 -.747E+01 -.421E+02   -.368E-01 0.388E-01 0.968E-02
   0.184E+01 -.172E+01 0.183E+02   -.183E+01 0.172E+01 -.183E+02   -.189E-02 -.223E-02 -.316E-02
   0.152E+01 -.125E+01 0.172E+02   -.152E+01 0.126E+01 -.172E+02   -.439E-02 -.503E-02 0.436E-02
   0.468E+01 -.103E+02 0.451E+02   -.471E+01 0.103E+02 -.451E+02   0.538E-01 -.140E-01 0.517E-02
   0.244E+01 -.123E+02 0.320E+02   -.246E+01 0.123E+02 -.320E+02   0.137E-01 -.222E-02 -.219E-01
   -.647E+01 0.403E+01 0.212E+02   0.647E+01 -.403E+01 -.212E+02   0.838E-02 -.165E-02 -.497E-03
   -.917E+01 0.267E+01 0.239E+02   0.918E+01 -.267E+01 -.239E+02   -.693E-02 0.120E-01 -.195E-01
   -.107E+01 -.416E+00 0.166E+02   0.108E+01 0.425E+00 -.166E+02   0.148E-02 -.164E-01 0.221E-02
   0.531E+00 0.382E+01 0.175E+02   -.533E+00 -.382E+01 -.175E+02   0.278E-02 -.101E-01 0.997E-02
   -.182E+01 -.110E+02 0.260E+02   0.181E+01 0.110E+02 -.260E+02   0.757E-02 -.159E-01 0.178E-02
   -.869E+00 -.580E+01 0.192E+02   0.872E+00 0.581E+01 -.192E+02   -.109E-01 -.139E-01 0.175E-03
   0.104E+02 -.458E+01 0.284E+02   -.104E+02 0.458E+01 -.283E+02   0.458E-03 0.220E-02 -.362E-01
   0.661E+01 -.560E+01 0.235E+02   -.661E+01 0.560E+01 -.235E+02   -.538E-02 0.885E-02 -.100E-01
   -.228E+01 0.454E+01 0.514E+02   0.228E+01 -.456E+01 -.515E+02   -.123E-01 0.338E-01 0.608E-01
   -.332E+01 -.716E+01 0.499E+02   0.331E+01 0.718E+01 -.499E+02   0.237E-01 -.228E-01 0.415E-01
   0.329E+01 -.137E+01 0.184E+02   -.329E+01 0.138E+01 -.184E+02   0.512E-02 -.832E-02 -.944E-02
   0.665E+00 0.293E+01 0.186E+02   -.671E+00 -.293E+01 -.186E+02   0.560E-02 -.240E-02 0.333E-02
   -.126E+02 0.166E+01 0.338E+02   0.126E+02 -.167E+01 -.338E+02   0.418E-02 0.206E-01 -.591E-02
   -.119E+02 -.486E+01 0.316E+02   0.119E+02 0.485E+01 -.316E+02   -.241E-01 0.154E-01 0.450E-02
   0.398E+01 -.803E+01 0.244E+02   -.399E+01 0.803E+01 -.244E+02   0.112E-01 0.127E-02 -.205E-01
   0.362E+00 -.320E+01 0.195E+02   -.368E+00 0.320E+01 -.195E+02   -.233E-02 0.623E-03 -.361E-02
   -.914E+01 -.967E+01 0.372E+02   0.916E+01 0.969E+01 -.373E+02   -.265E-01 -.188E-01 0.133E-01
   -.577E+01 -.106E+02 0.273E+02   0.578E+01 0.106E+02 -.273E+02   -.704E-02 -.249E-01 0.115E-01
   0.427E+00 0.165E+01 0.171E+02   -.419E+00 -.165E+01 -.171E+02   -.883E-02 -.219E-02 0.643E-02
   0.112E+01 0.164E+01 0.183E+02   -.112E+01 -.164E+01 -.183E+02   -.135E-01 0.104E-01 -.500E-02
   -.454E+01 0.640E+00 0.197E+02   0.455E+01 -.647E+00 -.197E+02   -.339E-02 0.458E-02 0.472E-02
   -.397E+01 -.163E+01 0.192E+02   0.398E+01 0.163E+01 -.192E+02   -.988E-02 0.488E-02 -.172E-02
   -.788E+01 -.408E+01 0.220E+02   0.790E+01 0.409E+01 -.220E+02   -.109E-01 -.815E-02 0.662E-02
   -.479E+01 -.384E+01 0.189E+02   0.480E+01 0.385E+01 -.190E+02   -.860E-02 -.140E-01 0.111E-01
   -.443E+01 -.574E+01 0.201E+02   0.444E+01 0.575E+01 -.202E+02   -.136E-01 -.218E-01 0.907E-02
   -.659E+00 -.141E+01 0.176E+02   0.665E+00 0.143E+01 -.176E+02   -.544E-02 -.151E-01 0.919E-02
   0.166E+01 0.407E+01 0.182E+02   -.166E+01 -.407E+01 -.182E+02   -.386E-02 -.446E-02 0.817E-02
   0.531E+01 0.832E+01 0.228E+02   -.532E+01 -.833E+01 -.228E+02   0.617E-02 0.584E-02 0.115E-01
   0.435E+00 0.704E+01 0.198E+02   -.436E+00 -.704E+01 -.199E+02   0.102E-01 -.144E-02 0.120E-03
   -.805E-01 0.119E+02 0.276E+02   0.843E-01 -.119E+02 -.276E+02   -.249E-02 0.103E-01 0.545E-02
   -.134E+01 0.260E+01 0.194E+02   0.133E+01 -.260E+01 -.194E+02   0.121E-01 -.508E-02 -.547E-02
   -.537E+01 0.671E+01 0.231E+02   0.537E+01 -.670E+01 -.231E+02   -.234E-03 0.138E-02 -.129E-01
   -.104E+01 -.283E+01 0.182E+02   0.104E+01 0.283E+01 -.182E+02   0.346E-03 -.454E-02 0.281E-02
   -.258E+01 0.102E+01 0.174E+02   0.259E+01 -.102E+01 -.174E+02   -.117E-01 0.741E-03 -.713E-02
   0.247E+00 -.176E+01 0.173E+02   -.241E+00 0.177E+01 -.173E+02   -.766E-02 -.124E-01 0.715E-02
   0.280E+01 0.202E+01 0.175E+02   -.280E+01 -.202E+01 -.175E+02   -.114E-01 0.174E-02 0.347E-02
   0.565E-01 -.375E-01 -.318E+03   -.513E-01 0.323E-01 0.318E+03   -.173E-01 0.151E-01 -.204E-01
   -.228E+03 0.155E+03 -.489E+03   0.279E+03 -.190E+03 0.492E+03   -.527E+02 0.358E+02 -.352E+01
   0.228E+03 -.155E+03 -.469E+03   -.279E+03 0.190E+03 0.466E+03   0.527E+02 -.358E+02 0.318E+01
 -----------------------------------------------------------------------------------------------
   -.638E-02 0.152E-01 0.311E+00   0.568E-13 0.284E-13 0.114E-12   -.144E-01 0.427E-02 -.271E+00
 
 
 POSITION                                       TOTAL-FORCE (eV/Angst)
 -----------------------------------------------------------------------------------
     11.98348      0.00342      0.01417        -0.007043      0.007265     -0.004172
     -0.34154      1.42665      0.01100        -0.015465      0.017907     -0.004312
      2.12355      0.00315      0.01249         0.010910      0.011477     -0.008149
      2.12326      1.42653      0.00641         0.020147      0.016061     -0.002237
     10.75099      2.13819      0.01213        -0.007381      0.017653     -0.000399
     -1.57382      3.56123      0.01110        -0.023741      0.014578     -0.001263
      0.89078      2.13854      0.00548         0.005004      0.014599      0.005427
      0.89099      3.56147      0.00181        -0.012656      0.011779      0.015224
      4.58864      0.00346      0.01135         0.027521     -0.018654     -0.003186
      4.58894      1.42623      0.00646         0.011850      0.022625      0.018481
      9.51854      4.27281      0.01369         0.017309      0.000173      0.000775
     -2.80632      5.69591      0.01434        -0.005677     -0.017892      0.001013
      2.12300      4.27302      0.00000         0.013700      0.019689      0.025557
      2.12335      5.69594      0.00581         0.002781      0.006226      0.001049
      7.05344      0.00333      0.01399         0.007250     -0.014581      0.000303
      7.05353      1.42635      0.01368        -0.003004      0.013198     -0.004625
      8.28610      6.40752      0.01601         0.019591     -0.022027     -0.001368
     -4.03885      7.83070      0.01636         0.008044     -0.019281     -0.001981
      3.35586      6.40753      0.01007        -0.016962     -0.011270     -0.001682
      3.35599      7.83072      0.01320        -0.018422     -0.007492     -0.000548
     -0.34146      4.27290      0.00723         0.001353      0.019777     -0.003467
     -0.34138      5.69591      0.00946        -0.011287      0.002055      0.001898
      3.35624      2.13791      0.00222        -0.000313      0.025942      0.028478
      3.35573      3.56155      0.00139         0.027641     -0.002222      0.019319
     -1.57395      6.40758      0.01311         0.027297     -0.015282     -0.000858
     -1.57385      7.83068      0.01438         0.010901     -0.002945      0.000002
      5.82093      2.13784      0.01033         0.021286      0.005402      0.000602
      5.82114      3.56097      0.01156         0.004329     -0.001294     -0.004557
      0.89092      6.40755      0.00907         0.003782     -0.000691     -0.002716
      0.89106      7.83068      0.01235        -0.007781      0.007347      0.002918
      4.58871      4.27293      0.00850        -0.016573      0.000020     -0.006765
      4.58852      5.69606      0.01149         0.001170     -0.020351     -0.003730
      9.51845      0.00337      0.01490        -0.018181     -0.006232     -0.000589
      9.51855      1.42644      0.01438        -0.030743      0.021710     -0.000354
      8.28593      2.13803      0.01453         0.000615     -0.000336      0.002409
      8.28613      3.56115      0.01464        -0.012285     -0.004195     -0.001006
      7.05356      4.27269      0.01457         0.005285     -0.008384      0.001233
      7.05362      5.69588      0.01553        -0.001570     -0.030400     -0.000703
      5.82112      6.40755      0.01489        -0.014994     -0.018236     -0.001117
      5.82102      7.83073      0.01579        -0.005023     -0.020280     -0.002028
      7.05363      8.54227      0.01631        -0.002789     -0.011895     -0.001294
     -5.27149      9.96549      0.01495         0.000310     -0.002020     -0.005520
     -2.80638      8.54234      0.01558         0.029917     -0.016186     -0.002022
     -2.80627      9.96553      0.01362         0.020237      0.004334     -0.005923
     -0.34149      8.54239      0.01378         0.023717     -0.015622     -0.000184
     -0.34138      9.96550      0.01354         0.011827      0.011628     -0.001018
      2.12343      8.54232      0.01336        -0.013279     -0.013975      0.000637
      2.12354      9.96544      0.01469        -0.025718      0.014671     -0.001823
      4.58846      8.54235      0.01505        -0.020659     -0.016879      0.000002
      4.58853      9.96550      0.01517        -0.025688      0.007406     -0.001211
      3.04930      2.68154      4.20448        -0.027359      0.017983      0.009253
      4.02070      2.02068      4.26890        -1.656398      1.105516     -0.127187
      2.07767      3.34267      4.14503         1.667217     -1.098395      0.073415
 -----------------------------------------------------------------------------------
    total drift:                               -0.020767      0.019439      0.040566


--------------------------------------------------------------------------------------------------------



  FREE ENERGIE OF THE ION-ELECTRON SYSTEM (eV)
  ---------------------------------------------------
  free  energy   TOTEN  =      -531.09083038 eV

  energy  without entropy=     -531.09083038  energy(sigma->0) =     -531.09083038
 


--------------------------------------------------------------------------------------------------------


    POTLOK:  cpu time    1.6817: real time    1.6906


--------------------------------------------------------------------------------------------------------


 writing wavefunctions
     LOOP+:  cpu time  666.6939: real time  672.8667
    4ORBIT:  cpu time    0.0000: real time    0.0000

 total amount of memory used by VASP MPI-rank0   556209. kBytes
=======================================================================

   base      :      30000. kBytes
   nonl-proj :     184518. kBytes
   fftplans  :      31725. kBytes
   grid      :     282516. kBytes
   one-center:        162. kBytes
   wavefun   :      27288. kBytes
 
  
  
 General timing and accounting informations for this job:
 ========================================================
  
                  Total CPU time used (sec):      704.143
                            User time (sec):      681.089
                          System time (sec):       23.055
                         Elapsed time (sec):      712.981
  
                   Maximum memory used (kb):     1038792.
                   Average memory used (kb):          N/A
  
                          Minor page faults:       190940
                          Major page faults:           67
                 Voluntary context switches:         3506
