 vasp.6.2.1 16May21 (build Nov 06 2021 14:46:37) complex                        
  
 executed on             LinuxIFC date 2025.04.16  21:30:50
 running on  112 total cores
 distrk:  each k-point on   56 cores,    2 groups
 distr:  one band on NCORE=   1 cores,   56 groups


--------------------------------------------------------------------------------------------------------


 INCAR:
   ALGO = Conjugate
   KPAR = 2
   NCORE = 32
   ISMEAR = 0
   SIGMA = 0.01
   PREC = Accurate
   EDIFF = 1E-7
   ENCUT = 1000
   ISIF = 0
   METAGGA = SCAN
   LASPH = .TRUE.
   SYMPREC = 1E-7

 POTCAR:    PAW_PBE C_h 06Feb2004                 
 POTCAR:    PAW_PBE O_h 06Feb2004                 
 -----------------------------------------------------------------------------
|                                                                             |
|           W    W    AA    RRRRR   N    N  II  N    N   GGGG   !!!           |
|           W    W   A  A   R    R  NN   N  II  NN   N  G    G  !!!           |
|           W    W  A    A  R    R  N N  N  II  N N  N  G       !!!           |
|           W WW W  AAAAAA  RRRRR   N  N N  II  N  N N  G  GGG   !            |
|           WW  WW  A    A  R   R   N   NN  II  N   NN  G    G                |
|           W    W  A    A  R    R  N    N  II  N    N   GGGG   !!!           |
|                                                                             |
|     The value NCORE = 32 specified in the INCAR file was overwritten,       |
|     because it was not compatible with the 56 processes available:          |
|     NCORE = 1                                                               |
|     was used instead, please check that this makes sense for your           |
|     machine.                                                                |
|                                                                             |
 -----------------------------------------------------------------------------

 -----------------------------------------------------------------------------
|                                                                             |
|           W    W    AA    RRRRR   N    N  II  N    N   GGGG   !!!           |
|           W    W   A  A   R    R  NN   N  II  NN   N  G    G  !!!           |
|           W    W  A    A  R    R  N N  N  II  N N  N  G       !!!           |
|           W WW W  AAAAAA  RRRRR   N  N N  II  N  N N  G  GGG   !            |
|           WW  WW  A    A  R   R   N   NN  II  N   NN  G    G                |
|           W    W  A    A  R    R  N    N  II  N    N   GGGG   !!!           |
|                                                                             |
|     For optimal performance we recommend to set                             |
|       NCORE = 2 up to number-of-cores-per-socket                            |
|     NCORE specifies how many cores store one orbital (NPAR=cpu/NCORE).      |
|     This setting can greatly improve the performance of VASP for DFT.       |
|     The default, NCORE=1 might be grossly inefficient on modern             |
|     multi-core architectures or massively parallel machines. Do your        |
|     own testing! More info at https://www.vasp.at/wiki/index.php/NCORE      |
|     Unfortunately you need to use the default for GW and RPA                |
|     calculations (for HF NCORE is supported but not extensively tested      |
|     yet).                                                                   |
|                                                                             |
 -----------------------------------------------------------------------------

 POTCAR:    PAW_PBE C_h 06Feb2004                 
   VRHFIN =C: s2p2                                                                                  
   LEXCH  = PE                                                                                      
   EATOM  =   147.1560 eV,   10.8157 Ry                                                             
                                                                                                    
   TITEL  = PAW_PBE C_h 06Feb2004                                                                   
   LULTRA =        F    use ultrasoft PP ?                                                          
   IUNSCR =        1    unscreen: 0-lin 1-nonlin 2-no                                               
   RPACOR =    0.800    partial core radius                                                         
   POMASS =   12.011; ZVAL   =    4.000    mass and valenz                                          
   RCORE  =    1.100    outmost cutoff radius                                                       
   RWIGS  =    1.630; RWIGS  =    0.863    wigner-seitz radius (au A)                               
   ENMAX  =  700.000; ENMIN  =  500.000 eV                                                          
   ICORE  =        2    local potential                                                             
   LCOR   =        T    correct aug charges                                                         
   LPAW   =        T    paw PP                                                                      
   EAUG   =  946.768                                                                                
   DEXC   =    0.000                                                                                
   RMAX   =    1.128    core radius for proj-oper                                                   
   RAUG   =    1.300    factor for augmentation sphere                                              
   RDEP   =    1.162    radius for radial grids                                                     
   RDEPT  =    1.088    core radius for aug-charge                                                  
                                                                                                    
   Atomic configuration                                                                             
    4 entries                                                                                       
     n  l   j            E        occ.                                                              
     1  0  0.50      -273.3789   2.0000                                                             
     2  0  0.50       -13.7508   2.0000                                                             
     2  1  0.50        -5.2854   2.0000                                                             
     3  2  1.50        -5.4423   0.0000                                                             
   Description                                                                                      
     l       E           TYP  RCUT    TYP  RCUT                                                     
     0    -13.7508458     23  1.100                                                                 
     0     -8.2022199     23  1.100                                                                 
     1     -5.2854383     23  1.100                                                                 
     1      1.1560700     23  1.100                                                                 
     2     -5.4423304      7  1.100                                                                 
  local pseudopotential read in
  partial core-charges read in
  partial kinetic energy density read in
  atomic valenz-charges read in
  non local Contribution for L=           0  read in
    real space projection operators read in
  non local Contribution for L=           0  read in
    real space projection operators read in
  non local Contribution for L=           1  read in
    real space projection operators read in
  non local Contribution for L=           1  read in
    real space projection operators read in
    PAW grid and wavefunctions read in
 
   number of l-projection  operators is LMAX  =           4
   number of lm-projection operators is LMMAX =           8
 
 POTCAR:    PAW_PBE O_h 06Feb2004                 
   VRHFIN =O: s2p4                                                                                  
   LEXCH  = PE                                                                                      
   EATOM  =   432.3788 eV,   31.7789 Ry                                                             
                                                                                                    
   TITEL  = PAW_PBE O_h 06Feb2004                                                                   
   LULTRA =        F    use ultrasoft PP ?                                                          
   IUNSCR =        1    unscreen: 0-lin 1-nonlin 2-no                                               
   RPACOR =    0.800    partial core radius                                                         
   POMASS =   16.000; ZVAL   =    6.000    mass and valenz                                          
   RCORE  =    1.100    outmost cutoff radius                                                       
   RWIGS  =    1.400; RWIGS  =    0.741    wigner-seitz radius (au A)                               
   ENMAX  =  700.000; ENMIN  =  500.000 eV                                                          
   ICORE  =        2    local potential                                                             
   LCOR   =        T    correct aug charges                                                         
   LPAW   =        T    paw PP                                                                      
   EAUG   =  888.804                                                                                
   DEXC   =    0.000                                                                                
   RMAX   =    1.128    core radius for proj-oper                                                   
   RAUG   =    1.300    factor for augmentation sphere                                              
   RDEP   =    1.125    radius for radial grids                                                     
   RDEPT  =    1.088    core radius for aug-charge                                                  
                                                                                                    
   Atomic configuration                                                                             
    4 entries                                                                                       
     n  l   j            E        occ.                                                              
     1  0  0.50      -514.6923   2.0000                                                             
     2  0  0.50       -23.9615   2.0000                                                             
     2  1  0.50        -9.0305   4.0000                                                             
     3  2  1.50        -9.5241   0.0000                                                             
   Description                                                                                      
     l       E           TYP  RCUT    TYP  RCUT                                                     
     0    -23.9615319     23  1.100                                                                 
     0    -25.3221145     23  1.100                                                                 
     1     -9.0304911     23  1.100                                                                 
     1     -5.4802209     23  1.100                                                                 
     2     -9.5240782      7  1.100                                                                 
  local pseudopotential read in
  partial core-charges read in
  partial kinetic energy density read in
  atomic valenz-charges read in
  non local Contribution for L=           0  read in
    real space projection operators read in
  non local Contribution for L=           0  read in
    real space projection operators read in
  non local Contribution for L=           1  read in
    real space projection operators read in
  non local Contribution for L=           1  read in
    real space projection operators read in
    PAW grid and wavefunctions read in
 
   number of l-projection  operators is LMAX  =           4
   number of lm-projection operators is LMMAX =           8
 
 -----------------------------------------------------------------------------
|                                                                             |
|               ----> ADVICE to this user running VASP <----                  |
|                                                                             |
|     You have a (more or less) 'large supercell' and for larger cells it     |
|     might be more efficient to use real-space projection operators.         |
|     Therefore, try LREAL= Auto in the INCAR file.                           |
|     Mind: For very accurate calculation, you might also keep the            |
|     reciprocal projection scheme (i.e. LREAL=.FALSE.).                      |
|                                                                             |
 -----------------------------------------------------------------------------

  PAW_PBE C_h 06Feb2004                 :
 energy of atom  1       EATOM= -147.1560
 kinetic energy error for atom=    0.0031 (will be added to EATOM!!)
  PAW_PBE O_h 06Feb2004                 :
 energy of atom  2       EATOM= -432.3788
 kinetic energy error for atom=    0.0171 (will be added to EATOM!!)
 
 
 POSCAR:  C  O
  positions in cartesian coordinates
  No initial velocities read in

 METAGGA = SCAN     LMAXTAU =  6    LMIXTAU =  F

 exchange correlation table for  LEXCH =        8
   RHO(1)=    0.500       N(1)  =     2000
   RHO(2)=  100.500       N(2)  =     4000
 


--------------------------------------------------------------------------------------------------------


 ion  position               nearest neighbor table
   1  0.972  0.000  0.001-  50 1.42   2 1.42  42 1.42
   2  0.039  0.134  0.000-   5 1.42   7 1.42   1 1.42
   3  0.172  0.000  0.000-  42 1.42  44 1.42   4 1.42
   4  0.239  0.134  0.000-   7 1.42   3 1.42  23 1.42
   5  0.972  0.200  0.000-   6 1.42   2 1.42  34 1.42
   6  0.039  0.334  0.000-   5 1.42  21 1.42  11 1.42
   7  0.172  0.200  0.000-   8 1.42   2 1.42   4 1.42
   8  0.239  0.334  0.000-  13 1.42   7 1.42  21 1.42
   9  0.372  0.000  0.000-  10 1.42  44 1.42  46 1.42
  10  0.439  0.134  0.000-  27 1.42   9 1.42  23 1.42
  11  0.972  0.400  0.001-  12 1.42  36 1.42   6 1.42
  12  0.039  0.534  0.001-  25 1.42  11 1.42  17 1.42
  13  0.372  0.400  0.000-   8 1.42  14 1.42  24 1.42
  14  0.439  0.534  0.000-  13 1.42  29 1.42  19 1.42
  15  0.572  0.000  0.001-  46 1.42  16 1.42  48 1.42
  16  0.639  0.134  0.001-  15 1.42  35 1.42  27 1.42
  17  0.972  0.600  0.001-  38 1.42  18 1.42  12 1.42
  18  0.039  0.734  0.001-  43 1.42  41 1.42  17 1.42
  19  0.572  0.600  0.000-  14 1.42  20 1.42  32 1.42
  20  0.639  0.734  0.001-  49 1.42  19 1.42  47 1.42
  21  0.172  0.400  0.000-  22 1.42   8 1.42   6 1.42
  22  0.239  0.534  0.000-  21 1.42  29 1.42  25 1.42
  23  0.372  0.200  0.000-  10 1.42   4 1.42  24 1.42
  24  0.439  0.334  0.000-  13 1.42  31 1.42  23 1.42
  25  0.172  0.600  0.001-  26 1.42  12 1.42  22 1.42
  26  0.239  0.734  0.001-  25 1.42  45 1.42  43 1.42
  27  0.572  0.200  0.000-  10 1.42  28 1.42  16 1.42
  28  0.639  0.334  0.000-  27 1.42  37 1.42  31 1.42
  29  0.372  0.600  0.000-  22 1.42  14 1.42  30 1.42
  30  0.439  0.734  0.000-  47 1.42  29 1.42  45 1.42
  31  0.572  0.400  0.000-  32 1.42  28 1.42  24 1.42
  32  0.639  0.534  0.000-  31 1.42  39 1.42  19 1.42
  33  0.772  0.000  0.001-  34 1.42  48 1.42  50 1.42
  34  0.839  0.134  0.001-  33 1.42   5 1.42  35 1.42
  35  0.772  0.200  0.001-  36 1.42  16 1.42  34 1.42
  36  0.839  0.334  0.001-  35 1.42  11 1.42  37 1.42
  37  0.772  0.400  0.001-  28 1.42  38 1.42  36 1.42
  38  0.839  0.534  0.001-  17 1.42  37 1.42  39 1.42
  39  0.772  0.600  0.001-  40 1.42  38 1.42  32 1.42
  40  0.839  0.734  0.001-  39 1.42  49 1.42  41 1.42
  41  0.972  0.800  0.001-  18 1.42  42 1.42  40 1.42
  42  0.039  0.934  0.001-   3 1.42  41 1.42   1 1.42
  43  0.172  0.800  0.001-  18 1.42  44 1.42  26 1.42
  44  0.239  0.934  0.001-   9 1.42  43 1.42   3 1.42
  45  0.372  0.800  0.001-  26 1.42  46 1.42  30 1.42
  46  0.439  0.934  0.001-  15 1.42  45 1.42   9 1.42
  47  0.572  0.800  0.001-  30 1.42  48 1.42  20 1.42
  48  0.639  0.934  0.001-  47 1.42  33 1.42  15 1.42
  49  0.772  0.800  0.001-  50 1.42  20 1.42  40 1.42
  50  0.839  0.934  0.001-  49 1.42   1 1.42  33 1.42
  51  0.373  0.251  0.224-  52 1.18  53 1.18
  52  0.421  0.189  0.227-  51 1.18
  53  0.325  0.313  0.222-  51 1.18
 
  LATTYP: Found a hexagonal cell.
 ALAT       =    12.3250000000
 C/A-ratio  =     2.0283975659
  
  Lattice vectors:
  
 A1 = (  12.3250000000,   0.0000000000,   0.0000000000)
 A2 = (  -6.1625000000,  10.6737631016,   0.0000000000)
 A3 = (   0.0000000000,   0.0000000000,  25.0000000000)


Analysis of symmetry for initial positions (statically):
=====================================================================
 Subroutine PRICEL returns:
 Original cell was already a primitive cell.
 

 Routine SETGRP: Setting up the symmetry group for a 
 hexagonal supercell.


 Subroutine GETGRP returns: Found  1 space group operations
 (whereof  1 operations were pure point group operations)
 out of a pool of 24 trial point group operations.


The static configuration has the point symmetry C_1 .


Analysis of symmetry for dynamics (positions and initial velocities):
=====================================================================
 Subroutine PRICEL returns:
 Original cell was already a primitive cell.
 

 Routine SETGRP: Setting up the symmetry group for a 
 hexagonal supercell.


 Subroutine GETGRP returns: Found  1 space group operations
 (whereof  1 operations were pure point group operations)
 out of a pool of 24 trial point group operations.


The dynamic configuration has the point symmetry C_1 .


 Subroutine INISYM returns: Found  1 space group operations
 (whereof  1 operations are pure point group operations),
 and found     1 'primitive' translations


----------------------------------------------------------------------------------------

                                     Primitive cell                                     

  volume of cell :    3288.8533

  direct lattice vectors                    reciprocal lattice vectors
    12.325000000  0.000000000  0.000000000     0.081135903  0.046843835  0.000000000
    -6.162500000 10.673763102  0.000000000     0.000000000  0.093687670  0.000000000
     0.000000000  0.000000000 25.000000000     0.000000000  0.000000000  0.040000000

  length of vectors
    12.325000000 12.325000000 25.000000000     0.093687670  0.093687670  0.040000000

  position of ions in fractional coordinates (direct lattice)
     0.972450841  0.000320818  0.000566711
     0.039118382  0.133659505  0.000440173
     0.172443627  0.000295449  0.000499628
     0.239096278  0.133647917  0.000256468
     0.972452058  0.200322012  0.000485219
     0.039128360  0.333643771  0.000444150
     0.172451764  0.200354552  0.000219167
     0.239124359  0.333665720  0.000072260
     0.372465565  0.000324403  0.000453913
     0.439137473  0.133619939  0.000258338
     0.972449824  0.400309362  0.000547611
     0.039124981  0.533636789  0.000573410
     0.372416176  0.400329481  0.000000000
     0.439099602  0.533638981  0.000232414
     0.572443676  0.000312125  0.000559580
     0.639110207  0.133631751  0.000547275
     0.972452703  0.600305653  0.000640289
     0.039124495  0.733640359  0.000654513
     0.572433471  0.600306242  0.000402895
     0.639111888  0.733641879  0.000527905
     0.172454630  0.400318228  0.000289045
     0.239120185  0.533636548  0.000378509
     0.372459750  0.200295993  0.000088997
     0.439107096  0.333673419  0.000055762
     0.172452155  0.600311506  0.000524340
     0.239123371  0.733638574  0.000575129
     0.572431082  0.200289171  0.000413296
     0.639112773  0.333618630  0.000462376
     0.372439808  0.600308022  0.000362844
     0.439116090  0.733637858  0.000494190
     0.572469358  0.400320504  0.000339918
     0.639119408  0.533650873  0.000459610
     0.772445723  0.000315427  0.000596161
     0.839116277  0.133640203  0.000575306
     0.772440513  0.200307432  0.000581033
     0.839120241  0.333635728  0.000585467
     0.772446320  0.400298367  0.000582978
     0.839118980  0.533633964  0.000621100
     0.772456143  0.600308173  0.000595712
     0.839115033  0.733643180  0.000631512
     0.972455313  0.800305582  0.000652233
     0.039114714  0.933643289  0.000598051
     0.172457971  0.800312211  0.000623372
     0.239134551  0.933647193  0.000544850
     0.372451396  0.800316674  0.000551399
     0.439124489  0.933644769  0.000541430
     0.572441101  0.800310054  0.000534535
     0.639115067  0.933638985  0.000587644
     0.772445098  0.800313187  0.000602062
     0.839116614  0.933644338  0.000606830
     0.373021009  0.251226878  0.224492410
     0.420879805  0.189313152  0.227069284
     0.325156981  0.313167186  0.222114215

  ion indices of the primitive-cell ions
   primitive index   ion index
                 1           1
                 2           2
                 3           3
                 4           4
                 5           5
                 6           6
                 7           7
                 8           8
                 9           9
                10          10
                11          11
                12          12
                13          13
                14          14
                15          15
                16          16
                17          17
                18          18
                19          19
                20          20
                21          21
                22          22
                23          23
                24          24
                25          25
                26          26
                27          27
                28          28
                29          29
                30          30
                31          31
                32          32
                33          33
                34          34
                35          35
                36          36
                37          37
                38          38
                39          39
                40          40
                41          41
                42          42
                43          43
                44          44
                45          45
                46          46
                47          47
                48          48
                49          49
                50          50
                51          51
                52          52
                53          53

----------------------------------------------------------------------------------------

 
 
 KPOINTS: auto                                    

Automatic generation of k-mesh.
 Grid dimensions read from file:
 generate k-points for:    1    1    1

 Generating k-lattice:

  Cartesian coordinates                     Fractional coordinates (reciprocal lattice)
     0.081135903  0.046843835  0.000000000     1.000000000 -0.000000000  0.000000000
     0.000000000  0.093687670  0.000000000     0.000000000  1.000000000  0.000000000
     0.000000000  0.000000000  0.040000000     0.000000000  0.000000000  1.000000000

  Length of vectors
     0.093687670  0.093687670  0.040000000

  Shift w.r.t. Gamma in fractional coordinates (k-lattice)
     0.000000000  0.000000000  0.000000000

 
 Subroutine IBZKPT returns following result:
 ===========================================
 
 Found      1 irreducible k-points:
 
 Following reciprocal coordinates:
            Coordinates               Weight
  0.000000  0.000000  0.000000      1.000000
 
 Following cartesian coordinates:
            Coordinates               Weight
  0.000000  0.000000  0.000000      1.000000
 


--------------------------------------------------------------------------------------------------------




 Dimension of arrays:
   k-points           NKPTS =      1   k-points in BZ     NKDIM =      1   number of bands    NBANDS=    168
   number of dos      NEDOS =    301   number of ions     NIONS =     53
   non local maximal  LDIM  =      4   non local SUM 2l+1 LMDIM =      8
   total plane-waves  NPLWV = ******
   max r-space proj   IRMAX =      1   max aug-charges    IRDMAX=  10008
   dimension x,y,z NGX =   128 NGY =  128 NGZ =  270
   dimension x,y,z NGXF=   256 NGYF=  256 NGZF=  540
   support grid    NGXF=   256 NGYF=  256 NGZF=  540
   ions per type =              51   2
   NGX,Y,Z   is equivalent  to a cutoff of  17.27, 17.27, 17.95 a.u.
   NGXF,Y,Z  is equivalent  to a cutoff of  34.53, 34.53, 35.91 a.u.

 SYSTEM =  unknown system                          
 POSCAR =   C  O                                   

 Startparameter for this run:
   NWRITE =      2    write-flag & timer
   PREC   = accura    normal or accurate (medium, high low for compatibility)
   ISTART =      0    job   : 0-new  1-cont  2-samecut
   ICHARG =      2    charge: 1-file 2-atom 10-const
   ISPIN  =      1    spin polarized calculation?
   LNONCOLLINEAR =      F non collinear calculations
   LSORBIT =      F    spin-orbit coupling
   INIWAV =      1    electr: 0-lowe 1-rand  2-diag
   LASPH  =      T    aspherical Exc in radial PAW
 Electronic Relaxation 1
   ENCUT  = 1000.0 eV  73.50 Ry    8.57 a.u.  31.78 31.78 64.46*2*pi/ulx,y,z
   ENINI  = 1000.0     initial cutoff
   ENAUG  =  946.8 eV  augmentation charge cutoff
   NELM   =     60;   NELMIN=  2; NELMDL= -5     # of ELM steps 
   EDIFF  = 0.1E-06   stopping-criterion for ELM
   LREAL  =      F    real-space projection
   NLSPLINE    = F    spline interpolate recip. space projectors
   LCOMPAT=      F    compatible to vasp.4.4
   GGA_COMPAT  = T    GGA compatible to vasp.4.4-vasp.4.6
   LMAXPAW     = -100 max onsite density
   LMAXMIX     =    2 max onsite mixed and CHGCAR
   VOSKOWN=      0    Vosko Wilk Nusair interpolation
   ROPT   =    0.00000   0.00000
 Ionic relaxation
   EDIFFG = 0.1E-05   stopping-criterion for IOM
   NSW    =      0    number of steps for IOM
   NBLOCK =      1;   KBLOCK =      1    inner block; outer block 
   IBRION =     -1    ionic relax: 0-MD 1-quasi-New 2-CG
   NFREE  =      0    steps in history (QN), initial steepest desc. (CG)
   ISIF   =      0    stress and relaxation
   IWAVPR =     10    prediction:  0-non 1-charg 2-wave 3-comb
   ISYM   =      2    0-nonsym 1-usesym 2-fastsym
   LCORR  =      T    Harris-Foulkes like correction to forces

   POTIM  = 0.5000    time-step for ionic-motion
   TEIN   =    0.0    initial temperature
   TEBEG  =    0.0;   TEEND  =   0.0 temperature during run
   SMASS  =  -3.00    Nose mass-parameter (am)
   estimated Nose-frequenzy (Omega)   =  0.10E-29 period in steps = 0.13E+47 mass=  -0.347E-26a.u.
   SCALEE = 1.0000    scale energy and forces
   NPACO  =    256;   APACO  = 16.0  distance and # of slots for P.C.
   PSTRESS=    0.0 pullay stress

  Mass of Ions in am
   POMASS =  12.01 16.00
  Ionic Valenz
   ZVAL   =   4.00  6.00
  Atomic Wigner-Seitz radii
   RWIGS  =  -1.00 -1.00
  virtual crystal weights 
   VCA    =   1.00  1.00
   NELECT =     216.0000    total number of electrons
   NUPDOWN=      -1.0000    fix difference up-down

 DOS related values:
   EMIN   =  10.00;   EMAX   =-10.00  energy-range for DOS
   EFERMI =   0.00
   ISMEAR =     0;   SIGMA  =   0.01  broadening in eV -4-tet -1-fermi 0-gaus

 Electronic relaxation 2 (details)
   IALGO  =     58    algorithm
   LDIAG  =      T    sub-space diagonalisation (order eigenvalues)
   LSUBROT=      F    optimize rotation matrix (better conditioning)
   TURBO    =      0    0=normal 1=particle mesh
   IRESTART =      0    0=no restart 2=restart with 2 vectors
   NREBOOT  =      0    no. of reboots
   NMIN     =      0    reboot dimension
   EREF     =   0.00    reference energy to select bands
   IMIX   =      4    mixing-type and parameters
     AMIX     =   0.40;   BMIX     =  1.00
     AMIX_MAG =   1.60;   BMIX_MAG =  1.00
     AMIN     =   0.10
     WC   =   100.;   INIMIX=   1;  MIXPRE=   1;  MAXMIX= -45

 Intra band minimization:
   WEIMIN = 0.0000     energy-eigenvalue tresh-hold
   EBREAK =  0.15E-09  absolut break condition
   DEPER  =   0.30     relativ break condition  

   TIME   =   0.40     timestep for ELM

  volume/ion in A,a.u.               =      62.05       418.76
  Fermi-wavevector in a.u.,A,eV,Ry     =   0.660508  1.248179  5.935820  0.436270
  Thomas-Fermi vector in A             =   1.732977
 
 Write flags
   LWAVE        =      T    write WAVECAR
   LDOWNSAMPLE  =      F    k-point downsampling of WAVECAR
   LCHARG       =      T    write CHGCAR
   LVTOT        =      F    write LOCPOT, total local potential
   LVHAR        =      F    write LOCPOT, Hartree potential only
   LELF         =      F    write electronic localiz. function (ELF)
   LORBIT       =      0    0 simple, 1 ext, 2 COOP (PROOUT), +10 PAW based schemes


 Dipole corrections
   LMONO  =      F    monopole corrections only (constant potential shift)
   LDIPOL =      F    correct potential (dipole corrections)
   IDIPOL =      0    1-x, 2-y, 3-z, 4-all directions 
   EPSILON=  1.0000000 bulk dielectric constant

 Exchange correlation treatment:
   GGA     =    --    GGA type
   LEXCH   =     8    internal setting for exchange type
   VOSKOWN=      0    Vosko Wilk Nusair interpolation
   LHFCALC =     F    Hartree Fock is set to
   LHFONE  =     F    Hartree Fock one center treatment
   AEXX    =    0.0000 exact exchange contribution

 Linear response parameters
   LEPSILON=     F    determine dielectric tensor
   LRPA    =     F    only Hartree local field effects (RPA)
   LNABLA  =     F    use nabla operator in PAW spheres
   LVEL    =     F    velocity operator in full k-point grid
   LINTERFAST=   F  fast interpolation
   KINTER  =     0    interpolate to denser k-point grid
   CSHIFT  =0.1000    complex shift for real part using Kramers Kronig
   OMEGAMAX=  -1.0    maximum frequency
   DEG_THRESHOLD= 0.2000000E-02 threshold for treating states as degnerate
   RTIME   =   -0.100 relaxation time in fs
  (WPLASMAI=    0.000 imaginary part of plasma frequency in eV, 0.658/RTIME)
   DFIELD  = 0.0000000 0.0000000 0.0000000 field for delta impulse in time
 
 Orbital magnetization related:
   ORBITALMAG=     F  switch on orbital magnetization
   LCHIMAG   =     F  perturbation theory with respect to B field
   DQ        =  0.001000  dq finite difference perturbation B field
   LLRAUG    =     F  two centre corrections for induced B field



--------------------------------------------------------------------------------------------------------


 Static calculation
 charge density and potential will be updated during run
 non-spin polarized calculation
 Conjugate gradient for all bands (Freysoldt, et al. PRB 79, 241103 (2009))
 preconditioned conjugated gradient                                        
 perform sub-space diagonalisation
    before iterative eigenvector-optimisation
 modified Broyden-mixing scheme, WC =      100.0
 initial mixing is a Kerker type mixing with AMIX =  0.4000 and BMIX =      1.0000
 Hartree-type preconditioning will be used
 using additional bands           60
 reciprocal scheme for non local part
 use partial core corrections
 no Harris-corrections to forces 
 use gradient corrections 
 use of overlap-Matrix (Vanderbilt PP)
 Gauss-broadening in eV      SIGMA  =   0.01


--------------------------------------------------------------------------------------------------------


  energy-cutoff  :     1000.00
  volume of cell :     3288.85
      direct lattice vectors                 reciprocal lattice vectors
    12.325000000  0.000000000  0.000000000     0.081135903  0.046843835  0.000000000
    -6.162500000 10.673763102  0.000000000     0.000000000  0.093687670  0.000000000
     0.000000000  0.000000000 25.000000000     0.000000000  0.000000000  0.040000000

  length of vectors
    12.325000000 12.325000000 25.000000000     0.093687670  0.093687670  0.040000000


 
 k-points in units of 2pi/SCALE and weight: auto                                    
   0.00000000  0.00000000  0.00000000       1.000
 
 k-points in reciprocal lattice and weights: auto                                    
   0.00000000  0.00000000  0.00000000       1.000
 
 position of ions in fractional coordinates (direct lattice) 
   0.97245084  0.00032082  0.00056671
   0.03911838  0.13365950  0.00044017
   0.17244363  0.00029545  0.00049963
   0.23909628  0.13364792  0.00025647
   0.97245206  0.20032201  0.00048522
   0.03912836  0.33364377  0.00044415
   0.17245176  0.20035455  0.00021917
   0.23912436  0.33366572  0.00007226
   0.37246557  0.00032440  0.00045391
   0.43913747  0.13361994  0.00025834
   0.97244982  0.40030936  0.00054761
   0.03912498  0.53363679  0.00057341
   0.37241618  0.40032948  0.00000000
   0.43909960  0.53363898  0.00023241
   0.57244368  0.00031213  0.00055958
   0.63911021  0.13363175  0.00054727
   0.97245270  0.60030565  0.00064029
   0.03912449  0.73364036  0.00065451
   0.57243347  0.60030624  0.00040289
   0.63911189  0.73364188  0.00052791
   0.17245463  0.40031823  0.00028904
   0.23912018  0.53363655  0.00037851
   0.37245975  0.20029599  0.00008900
   0.43910710  0.33367342  0.00005576
   0.17245216  0.60031151  0.00052434
   0.23912337  0.73363857  0.00057513
   0.57243108  0.20028917  0.00041330
   0.63911277  0.33361863  0.00046238
   0.37243981  0.60030802  0.00036284
   0.43911609  0.73363786  0.00049419
   0.57246936  0.40032050  0.00033992
   0.63911941  0.53365087  0.00045961
   0.77244572  0.00031543  0.00059616
   0.83911628  0.13364020  0.00057531
   0.77244051  0.20030743  0.00058103
   0.83912024  0.33363573  0.00058547
   0.77244632  0.40029837  0.00058298
   0.83911898  0.53363396  0.00062110
   0.77245614  0.60030817  0.00059571
   0.83911503  0.73364318  0.00063151
   0.97245531  0.80030558  0.00065223
   0.03911471  0.93364329  0.00059805
   0.17245797  0.80031221  0.00062337
   0.23913455  0.93364719  0.00054485
   0.37245140  0.80031667  0.00055140
   0.43912449  0.93364477  0.00054143
   0.57244110  0.80031005  0.00053453
   0.63911507  0.93363899  0.00058764
   0.77244510  0.80031319  0.00060206
   0.83911661  0.93364434  0.00060683
   0.37302101  0.25122688  0.22449241
   0.42087980  0.18931315  0.22706928
   0.32515698  0.31316719  0.22211421
 
 position of ions in cartesian coordinates  (Angst):
  11.98347958  0.00342433  0.01416777
  -0.34154264  1.42664989  0.01100432
   2.12354700  0.00315355  0.01249070
   2.12325634  1.42652621  0.00641170
  10.75098721  2.13818970  0.01213047
  -1.57382270  3.56123457  0.01110375
   0.89078307  2.13853702  0.00547917
   0.89099273  3.56146885  0.00180651
   4.58863896  0.00346260  0.01134782
   4.58893648  1.42622757  0.00645846
   9.51853763  4.27280730  0.01369027
  -2.80632132  5.69591267  0.01433526
   2.12299894  4.27302204  0.00000000
   2.12335237  5.69593607  0.00581036
   7.05344483  0.00333155  0.01398950
   7.05352764  1.42635365  0.01368187
   8.28609598  6.40752033  0.01600723
  -4.03884931  7.83070339  0.01636283
   3.35585531  6.40752662  0.01007237
   3.35598594  7.83071962  0.01319763
  -0.34145776  4.27290193  0.00722612
  -0.34137895  5.69591010  0.00946273
   3.35624236  2.13791198  0.00222492
   3.35573251  3.56155103  0.00139405
  -1.57394684  6.40758280  0.01310850
  -1.57385216  7.83068434  0.01437823
   5.82093107  2.13783916  0.01033241
   5.82114012  3.56096622  0.01155939
   0.89092245  6.40754561  0.00907111
   0.89106251  7.83067670  0.01235474
   4.58870974  4.27292622  0.00849795
   4.58852320  5.69606300  0.01149026
   9.51844972  0.00336679  0.01490402
   9.51855036  1.42644387  0.01438264
   8.28593477  2.13803408  0.01452582
   8.28612680  3.56114872  0.01463668
   7.05356221  4.27268994  0.01457444
   7.05362213  5.69588251  0.01552751
   5.82112285  6.40754723  0.01489279
   5.82101669  7.83073350  0.01578780
   7.05362858  8.54227219  0.01630582
  -5.27148792  9.96548729  0.01495127
  -2.80637951  8.54234295  0.01558431
  -2.80626749  9.96552896  0.01362126
  -0.34148805  8.54239058  0.01378498
  -0.34137657  9.96550309  0.01353576
   2.12342586  8.54231992  0.01336337
   2.12354296  9.96544135  0.01469111
   4.58845581  8.54235337  0.01505154
   4.58852904  9.96549848  0.01517076
   3.04929830  2.68153618  5.61231024
   4.02070129  2.02068374  5.67673210
   2.07766701  3.34267235  5.55285537
 


--------------------------------------------------------------------------------------------------------


 k-point   1 :   0.0000 0.0000 0.0000  plane waves:  236157

 maximum and minimum number of plane-waves per node :    236157   236157

 maximum number of plane-waves:    236157
 maximum index in each direction: 
   IXMAX=   31   IYMAX=   31   IZMAX=   64
   IXMIN=  -31   IYMIN=  -31   IZMIN=  -64


 serial   3D FFT for wavefunctions
 parallel 3D FFT for charge:
    minimum data exchange during FFTs selected (reduces bandwidth)


 total amount of memory used by VASP MPI-rank0   698619. kBytes
=======================================================================

   base      :      30000. kBytes
   nonl-proj :     230539. kBytes
   fftplans  :      40716. kBytes
   grid      :     363125. kBytes
   one-center:        162. kBytes
   wavefun   :      34077. kBytes
 
     INWAV:  cpu time    0.0000: real time    0.0000
 Broyden mixing: mesh for mixing (old mesh)
   NGX = 63   NGY = 63   NGZ =129
  (NGX  =256   NGY  =256   NGZ  =540)
  gives a total of 512001 points

 initial charge density was supplied:
 charge density of overlapping atoms calculated
 number of electron     216.0000000 magnetization 
 keeping initial charge density in first step


--------------------------------------------------------------------------------------------------------


 Maximum index for augmentation-charges          471 (set IRDMAX)


--------------------------------------------------------------------------------------------------------


 First call to EWALD:  gamma=   0.119
 Maximum number of real-space cells 4x 4x 2
 Maximum number of reciprocal cells 2x 2x 4

    FEWALD:  cpu time    0.0051: real time    0.0051


--------------------------------------- Iteration      1(   1)  ---------------------------------------


    POTLOK:  cpu time    1.9595: real time    1.9736
    SETDIJ:  cpu time    0.2405: real time    0.2416
    TRIAL :  cpu time   27.9323: real time   28.1528
    CORREC:  cpu time    0.0003: real time    0.0005
    --------------------------------------------
      LOOP:  cpu time   30.1486: real time   30.3916

 eigenvalue-minimisations  :   336
 total energy-change (2. order) : 0.2535140E+04  (-0.1080517E+05)
 number of electron     216.0000000 magnetization 
 augmentation part      216.0000000 magnetization 

 Free energy of the ion-electron system (eV)
  ---------------------------------------------------
  alpha Z        PSCENC =        47.94900195
  Ewald energy   TEWEN  =     44016.25508261
  -Hartree energ DENC   =    -50085.43344884
  -exchange      EXHF   =         0.00000000
  -V(xc)+E(xc)   XCENC  =       602.79768386
  PAW double counting   =      6339.73130699    -6197.22120962
  entropy T*S    EENTRO =        -0.00000008
  eigenvalues    EBANDS =      -558.46249734
  atomic energy  EATOM  =      8369.52358910
  ---------------------------------------------------
  free energy    TOTEN  =      2535.13950864 eV

  energy without entropy =     2535.13950872  energy(sigma->0) =     2535.13950868


--------------------------------------------------------------------------------------------------------




--------------------------------------- Iteration      1(   2)  ---------------------------------------


    TRIAL :  cpu time   39.6969: real time   40.0210
    CORREC:  cpu time    0.0001: real time    0.0001
    --------------------------------------------
      LOOP:  cpu time   39.7132: real time   40.0380

 eigenvalue-minimisations  :   560
 total energy-change (2. order) :-0.2485407E+04  (-0.2329465E+04)
 number of electron     216.0000000 magnetization 
 augmentation part      216.0000000 magnetization 

 Free energy of the ion-electron system (eV)
  ---------------------------------------------------
  alpha Z        PSCENC =        47.94900195
  Ewald energy   TEWEN  =     44016.25508261
  -Hartree energ DENC   =    -50085.43344884
  -exchange      EXHF   =         0.00000000
  -V(xc)+E(xc)   XCENC  =       602.79768386
  PAW double counting   =      6339.73130699    -6197.22120962
  entropy T*S    EENTRO =        -0.00000000
  eigenvalues    EBANDS =     -3043.86961738
  atomic energy  EATOM  =      8369.52358910
  ---------------------------------------------------
  free energy    TOTEN  =        49.73238868 eV

  energy without entropy =       49.73238868  energy(sigma->0) =       49.73238868


--------------------------------------------------------------------------------------------------------




--------------------------------------- Iteration      1(   3)  ---------------------------------------


    TRIAL :  cpu time   30.8060: real time   31.0561
    CORREC:  cpu time    0.0001: real time    0.0001
    --------------------------------------------
      LOOP:  cpu time   30.8225: real time   31.0857

 eigenvalue-minimisations  :   392
 total energy-change (2. order) :-0.6355737E+03  (-0.6323735E+03)
 number of electron     216.0000000 magnetization 
 augmentation part      216.0000000 magnetization 

 Free energy of the ion-electron system (eV)
  ---------------------------------------------------
  alpha Z        PSCENC =        47.94900195
  Ewald energy   TEWEN  =     44016.25508261
  -Hartree energ DENC   =    -50085.43344884
  -exchange      EXHF   =         0.00000000
  -V(xc)+E(xc)   XCENC  =       602.79768386
  PAW double counting   =      6339.73130699    -6197.22120962
  entropy T*S    EENTRO =        -0.00000000
  eigenvalues    EBANDS =     -3679.44329820
  atomic energy  EATOM  =      8369.52358910
  ---------------------------------------------------
  free energy    TOTEN  =      -585.84129214 eV

  energy without entropy =     -585.84129214  energy(sigma->0) =     -585.84129214


--------------------------------------------------------------------------------------------------------




--------------------------------------- Iteration      1(   4)  ---------------------------------------


    TRIAL :  cpu time   33.7923: real time   34.0667
    CORREC:  cpu time    0.0001: real time    0.0001
    --------------------------------------------
      LOOP:  cpu time   33.8257: real time   34.1053

 eigenvalue-minimisations  :   448
 total energy-change (2. order) :-0.3365187E+02  (-0.3340871E+02)
 number of electron     216.0000000 magnetization 
 augmentation part      216.0000000 magnetization 

 Free energy of the ion-electron system (eV)
  ---------------------------------------------------
  alpha Z        PSCENC =        47.94900195
  Ewald energy   TEWEN  =     44016.25508261
  -Hartree energ DENC   =    -50085.43344884
  -exchange      EXHF   =         0.00000000
  -V(xc)+E(xc)   XCENC  =       602.79768386
  PAW double counting   =      6339.73130699    -6197.22120962
  entropy T*S    EENTRO =        -0.00000000
  eigenvalues    EBANDS =     -3713.09516525
  atomic energy  EATOM  =      8369.52358910
  ---------------------------------------------------
  free energy    TOTEN  =      -619.49315920 eV

  energy without entropy =     -619.49315920  energy(sigma->0) =     -619.49315920


--------------------------------------------------------------------------------------------------------




--------------------------------------- Iteration      1(   5)  ---------------------------------------


    TRIAL :  cpu time   33.8085: real time   34.0664
    CORREC:  cpu time    0.0001: real time    0.0001
    CHARGE:  cpu time    2.9878: real time    3.0116
    --------------------------------------------
      LOOP:  cpu time   36.8291: real time   37.1114

 eigenvalue-minimisations  :   448
 total energy-change (2. order) :-0.1154219E+01  (-0.1149383E+01)
 number of electron     216.0000000 magnetization 
 augmentation part       -0.4329369 magnetization 

 Free energy of the ion-electron system (eV)
  ---------------------------------------------------
  alpha Z        PSCENC =        47.94900195
  Ewald energy   TEWEN  =     44016.25508261
  -Hartree energ DENC   =    -50085.43344884
  -exchange      EXHF   =         0.00000000
  -V(xc)+E(xc)   XCENC  =       602.79768386
  PAW double counting   =      6339.73130699    -6197.22120962
  entropy T*S    EENTRO =        -0.00000000
  eigenvalues    EBANDS =     -3714.24938447
  atomic energy  EATOM  =      8369.52358910
  ---------------------------------------------------
  free energy    TOTEN  =      -620.64737842 eV

  energy without entropy =     -620.64737842  energy(sigma->0) =     -620.64737842


--------------------------------------------------------------------------------------------------------




--------------------------------------- Iteration      1(   6)  ---------------------------------------


    POTLOK:  cpu time    1.9322: real time    1.9426
    SETDIJ:  cpu time    0.2438: real time    0.2447
    TRIAL :  cpu time   19.9534: real time   20.1018
    CORREC:  cpu time    9.2183: real time    9.2798
    CHARGE:  cpu time    2.9710: real time    2.9934
    --------------------------------------------
      LOOP:  cpu time   34.3527: real time   34.5983

 eigenvalue-minimisations  :     0
 total energy-change (2. order) : 0.1041002E+03  (-0.1211282E+02)
 number of electron     216.0000000 magnetization 
 augmentation part       -0.4892635 magnetization 

 Free energy of the ion-electron system (eV)
  ---------------------------------------------------
  alpha Z        PSCENC =        47.94900195
  Ewald energy   TEWEN  =     44016.25508261
  -Hartree energ DENC   =    -51445.66813156
  -exchange      EXHF   =         0.00000000
  -V(xc)+E(xc)   XCENC  =       669.75628620
  PAW double counting   =    113953.06870785  -113816.29343297
  entropy T*S    EENTRO =        -0.00000000
  eigenvalues    EBANDS =     -2311.13825639
  atomic energy  EATOM  =      8369.52358910
  ---------------------------------------------------
  free energy    TOTEN  =      -516.54715321 eV

  energy without entropy =     -516.54715321  energy(sigma->0) =     -516.54715321


--------------------------------------------------------------------------------------------------------




--------------------------------------- Iteration      1(   7)  ---------------------------------------


    POTLOK:  cpu time    1.9172: real time    1.9273
    SETDIJ:  cpu time    0.2530: real time    0.2539
    TRIAL :  cpu time   19.9739: real time   20.1332
    CORREC:  cpu time    9.2293: real time    9.2898
    CHARGE:  cpu time    3.0014: real time    3.0231
    --------------------------------------------
      LOOP:  cpu time   34.4111: real time   34.6644

 eigenvalue-minimisations  :     0
 total energy-change (2. order) :-0.1212963E+02  (-0.1577510E+01)
 number of electron     216.0000000 magnetization 
 augmentation part       -0.5192622 magnetization 

 Free energy of the ion-electron system (eV)
  ---------------------------------------------------
  alpha Z        PSCENC =        47.94900195
  Ewald energy   TEWEN  =     44016.25508261
  -Hartree energ DENC   =    -51016.13432157
  -exchange      EXHF   =         0.00000000
  -V(xc)+E(xc)   XCENC  =       649.78780314
  PAW double counting   =    131925.23463360  -131785.70960274
  entropy T*S    EENTRO =        -0.00000000
  eigenvalues    EBANDS =     -2735.58296940
  atomic energy  EATOM  =      8369.52358910
  ---------------------------------------------------
  free energy    TOTEN  =      -528.67678331 eV

  energy without entropy =     -528.67678331  energy(sigma->0) =     -528.67678331


--------------------------------------------------------------------------------------------------------




--------------------------------------- Iteration      1(   8)  ---------------------------------------


    POTLOK:  cpu time    1.9224: real time    1.9327
    SETDIJ:  cpu time    0.2419: real time    0.2427
    TRIAL :  cpu time   19.9706: real time   20.1152
    CORREC:  cpu time    9.2251: real time    9.2867
    CHARGE:  cpu time    2.9839: real time    3.0054
    --------------------------------------------
      LOOP:  cpu time   34.3680: real time   34.6120

 eigenvalue-minimisations  :     0
 total energy-change (2. order) :-0.1577605E+01  (-0.4995009E+00)
 number of electron     216.0000000 magnetization 
 augmentation part       -0.5180248 magnetization 

 Free energy of the ion-electron system (eV)
  ---------------------------------------------------
  alpha Z        PSCENC =        47.94900195
  Ewald energy   TEWEN  =     44016.25508261
  -Hartree energ DENC   =    -50986.84028562
  -exchange      EXHF   =         0.00000000
  -V(xc)+E(xc)   XCENC  =       648.24195586
  PAW double counting   =    139975.65759221  -139835.65282333
  entropy T*S    EENTRO =        -0.00000000
  eigenvalues    EBANDS =     -2765.38850076
  atomic energy  EATOM  =      8369.52358910
  ---------------------------------------------------
  free energy    TOTEN  =      -530.25438798 eV

  energy without entropy =     -530.25438798  energy(sigma->0) =     -530.25438798


--------------------------------------------------------------------------------------------------------




--------------------------------------- Iteration      1(   9)  ---------------------------------------


    POTLOK:  cpu time    1.9249: real time    1.9362
    SETDIJ:  cpu time    0.2440: real time    0.2449
    TRIAL :  cpu time   19.9667: real time   20.1140
    CORREC:  cpu time    9.2383: real time    9.3091
    CHARGE:  cpu time    2.9795: real time    3.0030
    --------------------------------------------
      LOOP:  cpu time   34.3761: real time   34.6336

 eigenvalue-minimisations  :     0
 total energy-change (2. order) :-0.4993895E+00  (-0.1899900E+00)
 number of electron     216.0000000 magnetization 
 augmentation part       -0.5135305 magnetization 

 Free energy of the ion-electron system (eV)
  ---------------------------------------------------
  alpha Z        PSCENC =        47.94900195
  Ewald energy   TEWEN  =     44016.25508261
  -Hartree energ DENC   =    -50995.70875956
  -exchange      EXHF   =         0.00000000
  -V(xc)+E(xc)   XCENC  =       648.03830638
  PAW double counting   =    146102.27496762  -145962.07787959
  entropy T*S    EENTRO =        -0.00000000
  eigenvalues    EBANDS =     -2757.00808596
  atomic energy  EATOM  =      8369.52358910
  ---------------------------------------------------
  free energy    TOTEN  =      -530.75377744 eV

  energy without entropy =     -530.75377744  energy(sigma->0) =     -530.75377744


--------------------------------------------------------------------------------------------------------




--------------------------------------- Iteration      1(  10)  ---------------------------------------


    POTLOK:  cpu time    1.9317: real time    1.9422
    SETDIJ:  cpu time    0.2384: real time    0.2392
    TRIAL :  cpu time   19.9557: real time   20.1080
    CORREC:  cpu time    9.2283: real time    9.2904
    CHARGE:  cpu time    2.9811: real time    3.0022
    --------------------------------------------
      LOOP:  cpu time   34.3697: real time   34.6198

 eigenvalue-minimisations  :     0
 total energy-change (2. order) :-0.1897899E+00  (-0.7910639E-01)
 number of electron     216.0000000 magnetization 
 augmentation part       -0.5076221 magnetization 

 Free energy of the ion-electron system (eV)
  ---------------------------------------------------
  alpha Z        PSCENC =        47.94900195
  Ewald energy   TEWEN  =     44016.25508261
  -Hartree energ DENC   =    -50995.86595588
  -exchange      EXHF   =         0.00000000
  -V(xc)+E(xc)   XCENC  =       647.84016763
  PAW double counting   =    148525.79683635  -148385.50310127
  entropy T*S    EENTRO =        -0.00000000
  eigenvalues    EBANDS =     -2756.93918784
  atomic energy  EATOM  =      8369.52358910
  ---------------------------------------------------
  free energy    TOTEN  =      -530.94356735 eV

  energy without entropy =     -530.94356735  energy(sigma->0) =     -530.94356735


--------------------------------------------------------------------------------------------------------




--------------------------------------- Iteration      1(  11)  ---------------------------------------


    POTLOK:  cpu time    1.9339: real time    1.9443
    SETDIJ:  cpu time    0.2348: real time    0.2357
    TRIAL :  cpu time   19.9434: real time   20.1074
    CORREC:  cpu time    9.2266: real time    9.2935
    CHARGE:  cpu time    2.9681: real time    2.9932
    --------------------------------------------
      LOOP:  cpu time   34.3873: real time   34.6783

 eigenvalue-minimisations  :     0
 total energy-change (2. order) :-0.7893350E-01  (-0.3150577E-01)
 number of electron     216.0000000 magnetization 
 augmentation part       -0.5039922 magnetization 

 Free energy of the ion-electron system (eV)
  ---------------------------------------------------
  alpha Z        PSCENC =        47.94900195
  Ewald energy   TEWEN  =     44016.25508261
  -Hartree energ DENC   =    -50990.34832438
  -exchange      EXHF   =         0.00000000
  -V(xc)+E(xc)   XCENC  =       647.69339888
  PAW double counting   =    148537.19843053  -148396.89976954
  entropy T*S    EENTRO =        -0.00000000
  eigenvalues    EBANDS =     -2762.39391001
  atomic energy  EATOM  =      8369.52358910
  ---------------------------------------------------
  free energy    TOTEN  =      -531.02250085 eV

  energy without entropy =     -531.02250085  energy(sigma->0) =     -531.02250085


--------------------------------------------------------------------------------------------------------




--------------------------------------- Iteration      1(  12)  ---------------------------------------


    POTLOK:  cpu time    1.9301: real time    1.9404
    SETDIJ:  cpu time    0.2433: real time    0.2440
    TRIAL :  cpu time   19.9448: real time   20.1137
    CORREC:  cpu time    9.2247: real time    9.2856
    CHARGE:  cpu time    2.9750: real time    2.9959
    --------------------------------------------
      LOOP:  cpu time   34.3334: real time   34.6243

 eigenvalue-minimisations  :     0
 total energy-change (2. order) :-0.3147548E-01  (-0.1044981E-01)
 number of electron     216.0000000 magnetization 
 augmentation part       -0.5039407 magnetization 

 Free energy of the ion-electron system (eV)
  ---------------------------------------------------
  alpha Z        PSCENC =        47.94900195
  Ewald energy   TEWEN  =     44016.25508261
  -Hartree energ DENC   =    -50985.90934353
  -exchange      EXHF   =         0.00000000
  -V(xc)+E(xc)   XCENC  =       647.59417990
  PAW double counting   =    147923.38346147  -147783.10842101
  entropy T*S    EENTRO =        -0.00000000
  eigenvalues    EBANDS =     -2766.74152683
  atomic energy  EATOM  =      8369.52358910
  ---------------------------------------------------
  free energy    TOTEN  =      -531.05397633 eV

  energy without entropy =     -531.05397633  energy(sigma->0) =     -531.05397633


--------------------------------------------------------------------------------------------------------




--------------------------------------- Iteration      1(  13)  ---------------------------------------


    POTLOK:  cpu time    1.9339: real time    1.9444
    SETDIJ:  cpu time    0.2403: real time    0.2411
    TRIAL :  cpu time   19.9459: real time   20.1136
    CORREC:  cpu time    9.2232: real time    9.2913
    CHARGE:  cpu time    2.9958: real time    3.0206
    --------------------------------------------
      LOOP:  cpu time   34.4275: real time   34.7045

 eigenvalue-minimisations  :     0
 total energy-change (2. order) :-0.1045903E-01  (-0.2931679E-02)
 number of electron     216.0000000 magnetization 
 augmentation part       -0.5045579 magnetization 

 Free energy of the ion-electron system (eV)
  ---------------------------------------------------
  alpha Z        PSCENC =        47.94900195
  Ewald energy   TEWEN  =     44016.25508261
  -Hartree energ DENC   =    -50984.31392702
  -exchange      EXHF   =         0.00000000
  -V(xc)+E(xc)   XCENC  =       647.53964588
  PAW double counting   =    147404.29253868  -147264.02988670
  entropy T*S    EENTRO =        -0.00000000
  eigenvalues    EBANDS =     -2768.28047986
  atomic energy  EATOM  =      8369.52358910
  ---------------------------------------------------
  free energy    TOTEN  =      -531.06443536 eV

  energy without entropy =     -531.06443536  energy(sigma->0) =     -531.06443536


--------------------------------------------------------------------------------------------------------




--------------------------------------- Iteration      1(  14)  ---------------------------------------


    POTLOK:  cpu time    1.9281: real time    1.9418
    SETDIJ:  cpu time    0.2398: real time    0.2408
    TRIAL :  cpu time   19.9138: real time   20.0966
    CORREC:  cpu time    9.2280: real time    9.2980
    CHARGE:  cpu time    2.9763: real time    3.0005
    --------------------------------------------
      LOOP:  cpu time   34.3018: real time   34.6058

 eigenvalue-minimisations  :     0
 total energy-change (2. order) :-0.2936482E-02  (-0.7628812E-03)
 number of electron     216.0000000 magnetization 
 augmentation part       -0.5048255 magnetization 

 Free energy of the ion-electron system (eV)
  ---------------------------------------------------
  alpha Z        PSCENC =        47.94900195
  Ewald energy   TEWEN  =     44016.25508261
  -Hartree energ DENC   =    -50984.21590032
  -exchange      EXHF   =         0.00000000
  -V(xc)+E(xc)   XCENC  =       647.53231975
  PAW double counting   =    147156.54631655  -147016.28927534
  entropy T*S    EENTRO =        -0.00000000
  eigenvalues    EBANDS =     -2768.36850614
  atomic energy  EATOM  =      8369.52358910
  ---------------------------------------------------
  free energy    TOTEN  =      -531.06737184 eV

  energy without entropy =     -531.06737184  energy(sigma->0) =     -531.06737184


--------------------------------------------------------------------------------------------------------




--------------------------------------- Iteration      1(  15)  ---------------------------------------


    POTLOK:  cpu time    1.9332: real time    1.9434
    SETDIJ:  cpu time    0.2375: real time    0.2383
    TRIAL :  cpu time   19.9635: real time   20.1170
    CORREC:  cpu time    9.2346: real time    9.3039
    CHARGE:  cpu time    2.9541: real time    2.9962
    --------------------------------------------
      LOOP:  cpu time   34.3600: real time   34.6460

 eigenvalue-minimisations  :     0
 total energy-change (2. order) :-0.7630803E-03  (-0.1996406E-03)
 number of electron     216.0000000 magnetization 
 augmentation part       -0.5049574 magnetization 

 Free energy of the ion-electron system (eV)
  ---------------------------------------------------
  alpha Z        PSCENC =        47.94900195
  Ewald energy   TEWEN  =     44016.25508261
  -Hartree energ DENC   =    -50984.10804080
  -exchange      EXHF   =         0.00000000
  -V(xc)+E(xc)   XCENC  =       647.53292664
  PAW double counting   =    147057.04931919  -146916.79490804
  entropy T*S    EENTRO =        -0.00000000
  eigenvalues    EBANDS =     -2768.47510557
  atomic energy  EATOM  =      8369.52358910
  ---------------------------------------------------
  free energy    TOTEN  =      -531.06813492 eV

  energy without entropy =     -531.06813492  energy(sigma->0) =     -531.06813492


--------------------------------------------------------------------------------------------------------




--------------------------------------- Iteration      1(  16)  ---------------------------------------


    POTLOK:  cpu time    1.9315: real time    1.9432
    SETDIJ:  cpu time    0.2364: real time    0.2376
    TRIAL :  cpu time   19.9318: real time   20.1060
    CORREC:  cpu time    9.2133: real time    9.3042
    CHARGE:  cpu time    2.9741: real time    3.0089
    --------------------------------------------
      LOOP:  cpu time   34.3244: real time   34.6481

 eigenvalue-minimisations  :     0
 total energy-change (2. order) :-0.2000534E-03  (-0.6322093E-04)
 number of electron     216.0000000 magnetization 
 augmentation part       -0.5049887 magnetization 

 Free energy of the ion-electron system (eV)
  ---------------------------------------------------
  alpha Z        PSCENC =        47.94900195
  Ewald energy   TEWEN  =     44016.25508261
  -Hartree energ DENC   =    -50984.00113170
  -exchange      EXHF   =         0.00000000
  -V(xc)+E(xc)   XCENC  =       647.53080917
  PAW double counting   =    147000.21226507  -146859.95830031
  entropy T*S    EENTRO =        -0.00000000
  eigenvalues    EBANDS =     -2768.57965086
  atomic energy  EATOM  =      8369.52358910
  ---------------------------------------------------
  free energy    TOTEN  =      -531.06833497 eV

  energy without entropy =     -531.06833497  energy(sigma->0) =     -531.06833497


--------------------------------------------------------------------------------------------------------




--------------------------------------- Iteration      1(  17)  ---------------------------------------


    POTLOK:  cpu time    1.9330: real time    1.9434
    SETDIJ:  cpu time    0.2407: real time    0.2414
    TRIAL :  cpu time   19.9327: real time   20.0959
    CORREC:  cpu time    9.2589: real time    9.3462
    CHARGE:  cpu time    2.9638: real time    2.9868
    --------------------------------------------
      LOOP:  cpu time   34.4104: real time   34.6989

 eigenvalue-minimisations  :     0
 total energy-change (2. order) :-0.6262594E-04  (-0.2346656E-04)
 number of electron     216.0000000 magnetization 
 augmentation part       -0.5049931 magnetization 

 Free energy of the ion-electron system (eV)
  ---------------------------------------------------
  alpha Z        PSCENC =        47.94900195
  Ewald energy   TEWEN  =     44016.25508261
  -Hartree energ DENC   =    -50984.11417430
  -exchange      EXHF   =         0.00000000
  -V(xc)+E(xc)   XCENC  =       647.53723355
  PAW double counting   =    146959.03459363  -146818.78128495
  entropy T*S    EENTRO =        -0.00000000
  eigenvalues    EBANDS =     -2768.47243920
  atomic energy  EATOM  =      8369.52358910
  ---------------------------------------------------
  free energy    TOTEN  =      -531.06839760 eV

  energy without entropy =     -531.06839760  energy(sigma->0) =     -531.06839760


--------------------------------------------------------------------------------------------------------




--------------------------------------- Iteration      1(  18)  ---------------------------------------


    POTLOK:  cpu time    1.9298: real time    1.9407
    SETDIJ:  cpu time    0.2375: real time    0.2384
    TRIAL :  cpu time   19.9660: real time   20.1102
    CORREC:  cpu time    9.2235: real time    9.2846
    CHARGE:  cpu time    2.9893: real time    3.0106
    --------------------------------------------
      LOOP:  cpu time   34.4019: real time   34.6418

 eigenvalue-minimisations  :     0
 total energy-change (2. order) :-0.2263425E-04  (-0.9179322E-05)
 number of electron     216.0000000 magnetization 
 augmentation part       -0.5050206 magnetization 

 Free energy of the ion-electron system (eV)
  ---------------------------------------------------
  alpha Z        PSCENC =        47.94900195
  Ewald energy   TEWEN  =     44016.25508261
  -Hartree energ DENC   =    -50984.18642494
  -exchange      EXHF   =         0.00000000
  -V(xc)+E(xc)   XCENC  =       647.54046771
  PAW double counting   =    146941.64749937  -146801.39412807
  entropy T*S    EENTRO =        -0.00000000
  eigenvalues    EBANDS =     -2768.40350797
  atomic energy  EATOM  =      8369.52358910
  ---------------------------------------------------
  free energy    TOTEN  =      -531.06842023 eV

  energy without entropy =     -531.06842023  energy(sigma->0) =     -531.06842023


--------------------------------------------------------------------------------------------------------




--------------------------------------- Iteration      1(  19)  ---------------------------------------


    POTLOK:  cpu time    1.9333: real time    1.9435
    SETDIJ:  cpu time    0.2338: real time    0.2347
    TRIAL :  cpu time   19.9444: real time   20.1080
    CORREC:  cpu time    9.2392: real time    9.3010
    CHARGE:  cpu time    2.9767: real time    2.9995
    --------------------------------------------
      LOOP:  cpu time   34.3420: real time   34.6121

 eigenvalue-minimisations  :     0
 total energy-change (2. order) :-0.8898933E-05  (-0.4115444E-05)
 number of electron     216.0000000 magnetization 
 augmentation part       -0.5050342 magnetization 

 Free energy of the ion-electron system (eV)
  ---------------------------------------------------
  alpha Z        PSCENC =        47.94900195
  Ewald energy   TEWEN  =     44016.25508261
  -Hartree energ DENC   =    -50984.19034918
  -exchange      EXHF   =         0.00000000
  -V(xc)+E(xc)   XCENC  =       647.53999585
  PAW double counting   =    146943.59222596  -146803.33831188
  entropy T*S    EENTRO =        -0.00000000
  eigenvalues    EBANDS =     -2768.39966355
  atomic energy  EATOM  =      8369.52358910
  ---------------------------------------------------
  free energy    TOTEN  =      -531.06842913 eV

  energy without entropy =     -531.06842913  energy(sigma->0) =     -531.06842913


--------------------------------------------------------------------------------------------------------




--------------------------------------- Iteration      1(  20)  ---------------------------------------


    POTLOK:  cpu time    1.9308: real time    1.9431
    SETDIJ:  cpu time    0.2379: real time    0.2387
    TRIAL :  cpu time   19.9633: real time   20.1075
    CORREC:  cpu time    9.2132: real time    9.2777
    CHARGE:  cpu time    2.9698: real time    2.9917
    --------------------------------------------
      LOOP:  cpu time   34.4131: real time   34.6602

 eigenvalue-minimisations  :     0
 total energy-change (2. order) :-0.3573485E-05  (-0.9210870E-06)
 number of electron     216.0000000 magnetization 
 augmentation part       -0.5050383 magnetization 

 Free energy of the ion-electron system (eV)
  ---------------------------------------------------
  alpha Z        PSCENC =        47.94900195
  Ewald energy   TEWEN  =     44016.25508261
  -Hartree energ DENC   =    -50984.22407689
  -exchange      EXHF   =         0.00000000
  -V(xc)+E(xc)   XCENC  =       647.54118539
  PAW double counting   =    146952.59648524  -146812.34241950
  entropy T*S    EENTRO =        -0.00000000
  eigenvalues    EBANDS =     -2768.36728061
  atomic energy  EATOM  =      8369.52358910
  ---------------------------------------------------
  free energy    TOTEN  =      -531.06843270 eV

  energy without entropy =     -531.06843270  energy(sigma->0) =     -531.06843270


--------------------------------------------------------------------------------------------------------




--------------------------------------- Iteration      1(  21)  ---------------------------------------


    POTLOK:  cpu time    1.9242: real time    1.9394
    SETDIJ:  cpu time    0.2427: real time    0.2435
    TRIAL :  cpu time   19.9587: real time   20.1084
    CORREC:  cpu time    9.2224: real time    9.2858
    CHARGE:  cpu time    2.9842: real time    3.0056
    --------------------------------------------
      LOOP:  cpu time   34.3580: real time   34.6118

 eigenvalue-minimisations  :     0
 total energy-change (2. order) :-0.9079231E-06  (-0.3780901E-06)
 number of electron     216.0000000 magnetization 
 augmentation part       -0.5050341 magnetization 

 Free energy of the ion-electron system (eV)
  ---------------------------------------------------
  alpha Z        PSCENC =        47.94900195
  Ewald energy   TEWEN  =     44016.25508261
  -Hartree energ DENC   =    -50984.22237528
  -exchange      EXHF   =         0.00000000
  -V(xc)+E(xc)   XCENC  =       647.54073849
  PAW double counting   =    146956.18153154  -146815.92738402
  entropy T*S    EENTRO =        -0.00000000
  eigenvalues    EBANDS =     -2768.36861801
  atomic energy  EATOM  =      8369.52358910
  ---------------------------------------------------
  free energy    TOTEN  =      -531.06843361 eV

  energy without entropy =     -531.06843361  energy(sigma->0) =     -531.06843361


--------------------------------------------------------------------------------------------------------




--------------------------------------- Iteration      1(  22)  ---------------------------------------


    POTLOK:  cpu time    1.9334: real time    1.9437
    SETDIJ:  cpu time    0.2462: real time    0.2470
    TRIAL :  cpu time   19.9681: real time   20.1165
    CORREC:  cpu time    9.2203: real time    9.2823
    CHARGE:  cpu time    2.9767: real time    3.0041
    --------------------------------------------
      LOOP:  cpu time   34.3759: real time   34.6259

 eigenvalue-minimisations  :     0
 total energy-change (2. order) :-0.3364985E-06  (-0.1607273E-06)
 number of electron     216.0000000 magnetization 
 augmentation part       -0.5050282 magnetization 

 Free energy of the ion-electron system (eV)
  ---------------------------------------------------
  alpha Z        PSCENC =        47.94900195
  Ewald energy   TEWEN  =     44016.25508261
  -Hartree energ DENC   =    -50984.21875101
  -exchange      EXHF   =         0.00000000
  -V(xc)+E(xc)   XCENC  =       647.54049281
  PAW double counting   =    146956.98333260  -146816.72920970
  entropy T*S    EENTRO =        -0.00000000
  eigenvalues    EBANDS =     -2768.37197232
  atomic energy  EATOM  =      8369.52358910
  ---------------------------------------------------
  free energy    TOTEN  =      -531.06843395 eV

  energy without entropy =     -531.06843395  energy(sigma->0) =     -531.06843395


--------------------------------------------------------------------------------------------------------




--------------------------------------- Iteration      1(  23)  ---------------------------------------


    POTLOK:  cpu time    1.9397: real time    1.9502
    SETDIJ:  cpu time    0.2299: real time    0.2306
    TRIAL :  cpu time   19.9608: real time   20.1269
    CORREC:  cpu time    9.2156: real time    9.2859
    CHARGE:  cpu time    2.9791: real time    3.0041
    --------------------------------------------
      LOOP:  cpu time   34.3567: real time   34.6390

 eigenvalue-minimisations  :     0
 total energy-change (2. order) :-0.1274457E-06  (-0.5860010E-07)
 number of electron     216.0000000 magnetization 
 augmentation part       -0.5050269 magnetization 

 Free energy of the ion-electron system (eV)
  ---------------------------------------------------
  alpha Z        PSCENC =        47.94900195
  Ewald energy   TEWEN  =     44016.25508261
  -Hartree energ DENC   =    -50984.21696478
  -exchange      EXHF   =         0.00000000
  -V(xc)+E(xc)   XCENC  =       647.54045087
  PAW double counting   =    146957.05656363  -146816.80250120
  entropy T*S    EENTRO =        -0.00000000
  eigenvalues    EBANDS =     -2768.37365625
  atomic energy  EATOM  =      8369.52358910
  ---------------------------------------------------
  free energy    TOTEN  =      -531.06843408 eV

  energy without entropy =     -531.06843408  energy(sigma->0) =     -531.06843408


--------------------------------------------------------------------------------------------------------




--------------------------------------- Iteration      1(  24)  ---------------------------------------


    POTLOK:  cpu time    1.9408: real time    1.9530
    SETDIJ:  cpu time    0.2274: real time    0.2283
    TRIAL :  cpu time   19.9487: real time   20.1159
    CORREC:  cpu time    9.2245: real time    9.2859
    EDDIAG:  cpu time    4.1590: real time    4.1891
    CHARGE:  cpu time    2.9758: real time    2.9962
    --------------------------------------------
      LOOP:  cpu time   38.5009: real time   38.8006

 eigenvalue-minimisations  :     0
 total energy-change (2. order) :-0.3076275E-07  (-0.2573238E-07)
 number of electron     216.0000000 magnetization 
 augmentation part       -0.5050260 magnetization 

 Free energy of the ion-electron system (eV)
  ---------------------------------------------------
  alpha Z        PSCENC =        47.94900195
  Ewald energy   TEWEN  =     44016.25508261
  -Hartree energ DENC   =    -50984.21546682
  -exchange      EXHF   =         0.00000000
  -V(xc)+E(xc)   XCENC  =       647.54040752
  PAW double counting   =    146957.01201125  -146816.75796777
  entropy T*S    EENTRO =        -0.00000000
  eigenvalues    EBANDS =     -2768.37509195
  atomic energy  EATOM  =      8369.52358910
  ---------------------------------------------------
  free energy    TOTEN  =      -531.06843411 eV

  energy without entropy =     -531.06843411  energy(sigma->0) =     -531.06843411


--------------------------------------------------------------------------------------------------------


  average scaling for gradient   1.0292


 average (electrostatic) potential at core
  the test charge radii are     0.5770  0.5955
  (the norm of the test charge is              1.0000)
       1 -88.0717       2 -88.0697       3 -88.0726       4 -88.0731       5 -88.0662
       6 -88.0642       7 -88.0710       8 -88.0662       9 -88.0672      10 -88.0695
      11 -88.0632      12 -88.0648      13 -88.0686      14 -88.0633      15 -88.0629
      16 -88.0660      17 -88.0669      18 -88.0699      19 -88.0682      20 -88.0662
      21 -88.0653      22 -88.0612      23 -88.0717      24 -88.0700      25 -88.0650
      26 -88.0648      27 -88.0639      28 -88.0693      29 -88.0659      30 -88.0617
      31 -88.0677      32 -88.0679      33 -88.0665      34 -88.0662      35 -88.0622
      36 -88.0661      37 -88.0639      38 -88.0687      39 -88.0685      40 -88.0701
      41 -88.0711      42 -88.0721      43 -88.0685      44 -88.0706      45 -88.0649
      46 -88.0646      47 -88.0658      48 -88.0645      49 -88.0698      50 -88.0692
      51 -92.1533      52-124.2769      53-124.2815
 
 
 
 E-fermi :  -4.4201     XC(G=0):  -1.8844     alpha+bet : -1.6890

 Fermi energy:        -4.4201157019

 k-point     1 :       0.0000    0.0000    0.0000
  band No.  band energies     occupation 
      1     -29.2137      2.00000
      2     -28.1871      2.00000
      3     -23.5756      2.00000
      4     -22.5901      2.00000
      5     -22.5898      2.00000
      6     -22.5897      2.00000
      7     -22.5882      2.00000
      8     -22.5876      2.00000
      9     -22.5873      2.00000
     10     -20.6574      2.00000
     11     -20.6572      2.00000
     12     -20.6570      2.00000
     13     -20.6565      2.00000
     14     -20.6563      2.00000
     15     -20.6562      2.00000
     16     -19.7220      2.00000
     17     -19.7218      2.00000
     18     -19.7215      2.00000
     19     -19.7210      2.00000
     20     -19.7206      2.00000
     21     -19.7204      2.00000
     22     -17.5016      2.00000
     23     -17.5013      2.00000
     24     -17.5006      2.00000
     25     -17.5003      2.00000
     26     -17.4991      2.00000
     27     -17.4990      2.00000
     28     -16.3419      2.00000
     29     -16.3418      2.00000
     30     -16.3411      2.00000
     31     -16.3410      2.00000
     32     -16.3403      2.00000
     33     -16.3402      2.00000
     34     -14.9493      2.00000
     35     -14.9493      2.00000
     36     -14.9487      2.00000
     37     -14.9483      2.00000
     38     -14.9482      2.00000
     39     -14.9475      2.00000
     40     -13.1669      2.00000
     41     -12.4909      2.00000
     42     -12.4907      2.00000
     43     -12.4903      2.00000
     44     -12.4902      2.00000
     45     -12.4891      2.00000
     46     -12.4888      2.00000
     47     -12.2725      2.00000
     48     -12.2724      2.00000
     49     -12.2713      2.00000
     50     -12.2713      2.00000
     51     -12.2702      2.00000
     52     -12.2700      2.00000
     53     -11.8896      2.00000
     54     -11.6328      2.00000
     55     -11.6326      2.00000
     56     -10.9364      2.00000
     57     -10.8264      2.00000
     58     -10.8262      2.00000
     59     -10.8246      2.00000
     60     -10.8242      2.00000
     61     -10.8241      2.00000
     62     -10.8240      2.00000
     63      -9.7647      2.00000
     64      -9.7641      2.00000
     65      -9.7628      2.00000
     66      -9.7619      2.00000
     67      -9.7604      2.00000
     68      -9.7603      2.00000
     69      -9.5260      2.00000
     70      -9.5258      2.00000
     71      -9.5254      2.00000
     72      -9.5251      2.00000
     73      -9.5246      2.00000
     74      -9.5238      2.00000
     75      -9.5233      2.00000
     76      -9.5232      2.00000
     77      -9.5226      2.00000
     78      -9.5222      2.00000
     79      -9.5220      2.00000
     80      -9.5220      2.00000
     81      -8.0373      2.00000
     82      -8.0372      2.00000
     83      -7.8198      2.00000
     84      -7.8185      2.00000
     85      -7.8179      2.00000
     86      -7.8174      2.00000
     87      -7.8150      2.00000
     88      -7.8144      2.00000
     89      -7.5215      2.00000
     90      -7.5211      2.00000
     91      -7.5209      2.00000
     92      -7.5208      2.00000
     93      -7.5207      2.00000
     94      -7.5205      2.00000
     95      -6.5779      2.00000
     96      -6.5767      2.00000
     97      -6.5764      2.00000
     98      -6.5760      2.00000
     99      -6.5758      2.00000
    100      -6.5753      2.00000
    101      -6.3021      2.00000
    102      -6.2998      2.00000
    103      -4.4799      2.00000
    104      -4.4796      2.00000
    105      -4.4792      2.00000
    106      -4.4792      2.00000
    107      -4.4775      2.00000
    108      -4.4774      2.00000
    109      -1.5040      0.00000
    110      -1.5037      0.00000
    111      -1.5029      0.00000
    112      -1.5026      0.00000
    113      -1.5020      0.00000
    114      -1.5019      0.00000
    115       0.4752      0.00000
    116       0.4762      0.00000
    117       0.4767      0.00000
    118       0.4772      0.00000
    119       0.4774      0.00000
    120       0.4800      0.00000
    121       0.5614      0.00000
    122       1.0284      0.00000
    123       1.2380      0.00000
    124       1.2414      0.00000
    125       1.4764      0.00000
    126       1.7128      0.00000
    127       1.9286      0.00000
    128       1.9712      0.00000
    129       1.9836      0.00000
    130       1.9914      0.00000
    131       1.9958      0.00000
    132       2.0290      0.00000
    133       2.1436      0.00000
    134       2.3535      0.00000
    135       2.3538      0.00000
    136       2.3545      0.00000
    137       2.3551      0.00000
    138       2.3552      0.00000
    139       2.3556      0.00000
    140       2.4351      0.00000
    141       2.5892      0.00000
    142       2.6913      0.00000
    143       2.7031      0.00000
    144       2.7168      0.00000
    145       2.7331      0.00000
    146       2.7648      0.00000
    147       2.7798      0.00000
    148       2.8028      0.00000
    149       2.8380      0.00000
    150       2.8439      0.00000
    151       2.9756      0.00000
    152       3.1963      0.00000
    153       3.4441      0.00000
    154       3.4784      0.00000
    155       3.5506      0.00000
    156       3.7498      0.00000
    157       4.0019      0.00000
    158       4.3589      0.00000
    159       4.5459      0.00000
    160       4.7922      0.00000
    161       4.8908      0.00000
    162       4.9129      0.00000
    163       4.9531      0.00000
    164       4.9542      0.00000
    165       4.9555      0.00000
    166       4.9591      0.00000
    167       4.9907      0.00000
    168       5.1900      0.00000


--------------------------------------------------------------------------------------------------------


 soft charge-density along one line, spin component           1
         0         1         2         3         4         5         6         7         8         9
 total charge-density along one line
 
 pseudopotential strength for first ion, spin component:           1
 12.643  21.273  -0.000   0.000   0.000  -0.000   0.000   0.000
 21.273  35.793  -0.000   0.000   0.000  -0.000   0.000   0.000
 -0.000  -0.000  -3.239   0.000   0.000  -5.803   0.000   0.000
  0.000   0.000   0.000  -3.243   0.000   0.000  -5.810   0.000
  0.000   0.000   0.000   0.000  -3.239   0.000   0.000  -5.804
 -0.000  -0.000  -5.803   0.000   0.000 -10.375   0.000   0.000
  0.000   0.000   0.000  -5.810   0.000   0.000 -10.385   0.000
  0.000   0.000   0.000   0.000  -5.804   0.000   0.000 -10.375
 total augmentation occupancy for first ion, spin component:           1
  9.643  -3.599   0.000  -0.002  -0.001  -0.000   0.001   0.000
 -3.599   1.374  -0.000   0.001   0.000   0.000  -0.000  -0.000
  0.000  -0.000   8.197  -0.009   0.001  -2.896   0.003  -0.000
 -0.002   0.001  -0.009   3.784  -0.000   0.003  -1.107   0.000
 -0.001   0.000   0.001  -0.000   8.196  -0.000   0.000  -2.895
 -0.000   0.000  -2.896   0.003  -0.000   1.036  -0.001   0.000
  0.001  -0.000   0.003  -1.107   0.000  -0.001   0.329  -0.000
  0.000  -0.000  -0.000   0.000  -2.895   0.000  -0.000   1.035


------------------------ aborting loop because EDIFF is reached ----------------------------------------


    FORLOC:  cpu time    0.1388: real time    0.1397
    FORNL :  cpu time    3.7855: real time    3.8161
    FORCOR:  cpu time    1.9142: real time    1.9292
    OFIELD:  cpu time    0.0031: real time    0.0032

 VOLUME and BASIS-vectors are now :
 -----------------------------------------------------------------------------
  energy-cutoff  :     1000.00
  volume of cell :     3288.85
      direct lattice vectors                 reciprocal lattice vectors
    12.325000000  0.000000000  0.000000000     0.081135903  0.046843835  0.000000000
    -6.162500000 10.673763102  0.000000000     0.000000000  0.093687670  0.000000000
     0.000000000  0.000000000 25.000000000     0.000000000  0.000000000  0.040000000

  length of vectors
    12.325000000 12.325000000 25.000000000     0.093687670  0.093687670  0.040000000


 FORCES acting on ions:
    Electron-Ion                     Ewald-Force                    Non-Local-Force
 -----------------------------------------------------------------------------------------------
   0.317E+01 0.274E+01 0.224E+02   -.317E+01 -.275E+01 -.224E+02   -.106E-02 0.580E-02 0.972E-02
   0.456E+01 0.222E+01 0.252E+02   -.457E+01 -.223E+01 -.252E+02   0.892E-03 0.114E-01 -.466E-02
   0.192E+01 0.519E+01 0.269E+02   -.193E+01 -.520E+01 -.269E+02   0.918E-02 0.228E-01 0.503E-02
   0.252E+01 0.364E+01 0.326E+02   -.253E+01 -.365E+01 -.326E+02   0.237E-01 0.182E-01 -.657E-02
   0.339E+01 0.796E+00 0.228E+02   -.338E+01 -.804E+00 -.228E+02   -.957E-02 0.674E-02 0.194E-02
   0.347E+01 -.703E+00 0.230E+02   -.347E+01 0.697E+00 -.230E+02   -.110E-01 0.134E-01 -.825E-02
   0.481E+01 0.175E+01 0.312E+02   -.482E+01 -.176E+01 -.312E+02   0.184E-01 -.270E-02 -.256E-02
   0.467E+01 -.168E+01 0.324E+02   -.468E+01 0.167E+01 -.324E+02   -.718E-03 0.803E-02 -.472E-02
   -.233E+01 0.470E+01 0.271E+02   0.233E+01 -.471E+01 -.271E+02   0.133E-01 -.454E-02 -.626E-02
   -.345E+01 0.289E+01 0.322E+02   0.345E+01 -.290E+01 -.322E+02   -.185E-01 0.282E-01 0.641E-02
   0.886E+00 -.882E+00 0.207E+02   -.879E+00 0.883E+00 -.207E+02   0.686E-03 -.387E-02 -.398E-02
   0.767E+00 -.643E+00 0.201E+02   -.770E+00 0.648E+00 -.201E+02   -.152E-02 -.528E-02 0.348E-02
   0.183E+01 -.394E+01 0.344E+02   -.184E+01 0.395E+01 -.343E+02   0.362E-01 -.188E-02 0.398E-02
   0.106E+01 -.523E+01 0.281E+02   -.106E+01 0.523E+01 -.281E+02   0.554E-02 0.361E-02 -.174E-01
   -.306E+01 0.188E+01 0.222E+02   0.306E+01 -.188E+01 -.222E+02   0.650E-02 -.686E-03 0.325E-02
   -.414E+01 0.123E+01 0.234E+02   0.414E+01 -.123E+01 -.234E+02   -.501E-02 0.901E-02 -.143E-01
   -.554E+00 -.205E+00 0.195E+02   0.557E+00 0.214E+00 -.195E+02   0.304E-02 -.155E-01 0.201E-02
   0.244E+00 0.191E+01 0.200E+02   -.248E+00 -.191E+01 -.200E+02   0.456E-02 -.942E-02 0.115E-01
   -.797E+00 -.494E+01 0.250E+02   0.798E+00 0.495E+01 -.250E+02   0.104E-02 -.130E-01 -.209E-02
   -.423E+00 -.284E+01 0.212E+02   0.428E+00 0.285E+01 -.212E+02   -.130E-01 -.113E-01 -.104E-03
   0.456E+01 -.202E+01 0.263E+02   -.456E+01 0.202E+01 -.263E+02   -.148E-02 0.568E-02 -.262E-01
   0.307E+01 -.254E+01 0.238E+02   -.308E+01 0.254E+01 -.238E+02   -.401E-02 0.661E-02 -.484E-02
   -.893E+00 0.165E+01 0.362E+02   0.883E+00 -.166E+01 -.362E+02   -.892E-03 0.276E-01 0.154E-01
   -.119E+01 -.262E+01 0.358E+02   0.119E+01 0.261E+01 -.358E+02   0.200E-01 -.812E-02 0.101E-02
   0.163E+01 -.636E+00 0.208E+02   -.163E+01 0.639E+00 -.208E+02   0.920E-02 -.964E-02 -.965E-02
   0.371E+00 0.144E+01 0.208E+02   -.379E+00 -.143E+01 -.208E+02   0.742E-02 -.312E-02 0.490E-02
   -.524E+01 0.716E+00 0.282E+02   0.525E+01 -.725E+00 -.282E+02   0.143E-01 0.149E-01 -.115E-02
   -.502E+01 -.199E+01 0.271E+02   0.503E+01 0.199E+01 -.271E+02   -.134E-01 0.952E-02 -.227E-02
   0.181E+01 -.363E+01 0.243E+02   -.181E+01 0.363E+01 -.243E+02   0.733E-02 0.343E-03 -.164E-01
   0.157E+00 -.155E+01 0.215E+02   -.160E+00 0.155E+01 -.215E+02   -.448E-02 -.647E-03 -.369E-02
   -.368E+01 -.382E+01 0.299E+02   0.368E+01 0.383E+01 -.299E+02   -.152E-01 -.120E-01 -.941E-02
   -.253E+01 -.470E+01 0.254E+02   0.254E+01 0.471E+01 -.254E+02   -.683E-02 -.160E-01 0.362E-02
   0.227E+00 0.859E+00 0.200E+02   -.217E+00 -.862E+00 -.200E+02   -.100E-01 -.823E-03 0.718E-02
   0.563E+00 0.834E+00 0.206E+02   -.559E+00 -.838E+00 -.206E+02   -.135E-01 0.121E-01 -.477E-02
   -.213E+01 0.345E+00 0.214E+02   0.214E+01 -.350E+00 -.214E+02   -.411E-02 0.266E-02 0.587E-02
   -.189E+01 -.809E+00 0.211E+02   0.190E+01 0.808E+00 -.211E+02   -.710E-02 0.269E-02 -.235E-02
   -.366E+01 -.190E+01 0.225E+02   0.367E+01 0.191E+01 -.225E+02   -.472E-02 -.805E-02 0.519E-02
   -.235E+01 -.186E+01 0.209E+02   0.235E+01 0.187E+01 -.209E+02   -.582E-02 -.131E-01 0.933E-02
   -.213E+01 -.273E+01 0.216E+02   0.214E+01 0.275E+01 -.216E+02   -.995E-02 -.180E-01 0.742E-02
   -.319E+00 -.705E+00 0.202E+02   0.325E+00 0.714E+00 -.202E+02   -.563E-02 -.127E-01 0.103E-01
   0.802E+00 0.201E+01 0.204E+02   -.802E+00 -.200E+01 -.204E+02   -.375E-02 -.625E-02 0.101E-01
   0.247E+01 0.385E+01 0.229E+02   -.247E+01 -.385E+01 -.229E+02   0.210E-02 0.202E-02 0.121E-01
   0.218E+00 0.337E+01 0.213E+02   -.222E+00 -.337E+01 -.213E+02   0.122E-01 -.365E-02 0.267E-02
   -.745E-01 0.522E+01 0.252E+02   0.684E-01 -.522E+01 -.252E+02   0.505E-02 0.558E-02 0.765E-02
   -.642E+00 0.122E+01 0.213E+02   0.638E+00 -.122E+01 -.213E+02   0.128E-01 -.384E-02 -.468E-02
   -.246E+01 0.302E+01 0.231E+02   0.246E+01 -.302E+01 -.231E+02   0.229E-02 0.816E-03 -.740E-02
   -.552E+00 -.143E+01 0.207E+02   0.557E+00 0.143E+01 -.207E+02   -.235E-02 -.380E-02 0.183E-02
   -.128E+01 0.484E+00 0.201E+02   0.129E+01 -.481E+00 -.201E+02   -.143E-01 0.175E-02 -.741E-02
   0.145E+00 -.886E+00 0.201E+02   -.138E+00 0.892E+00 -.201E+02   -.835E-02 -.113E-01 0.811E-02
   0.142E+01 0.101E+01 0.201E+02   -.141E+01 -.101E+01 -.201E+02   -.130E-01 0.149E-02 0.499E-02
   0.187E-01 -.394E-03 -.302E+03   -.195E-01 -.308E-02 0.303E+03   -.160E-01 0.151E-01 -.349E-02
   -.228E+03 0.155E+03 -.467E+03   0.279E+03 -.190E+03 0.470E+03   -.527E+02 0.358E+02 -.354E+01
   0.228E+03 -.155E+03 -.445E+03   -.279E+03 0.190E+03 0.442E+03   0.527E+02 -.359E+02 0.318E+01
 -----------------------------------------------------------------------------------------------
   -.209E-01 0.542E-02 0.374E+00   0.171E-12 -.142E-12 0.512E-12   -.164E-01 0.175E-01 -.368E+00
 
 
 POSITION                                       TOTAL-FORCE (eV/Angst)
 -----------------------------------------------------------------------------------
     11.98348      0.00342      0.01417        -0.006333      0.006302     -0.000671
     -0.34154      1.42665      0.01100        -0.013923      0.018582     -0.002481
      2.12355      0.00315      0.01249         0.010463      0.016728     -0.006107
      2.12326      1.42653      0.00641         0.027581      0.019130     -0.006686
     10.75099      2.13819      0.01213        -0.007202      0.016872      0.000240
     -1.57382      3.56123      0.01110        -0.025398      0.014098     -0.002454
      0.89078      2.13854      0.00548         0.009587      0.011919      0.003826
      0.89099      3.56147      0.00181        -0.011299      0.012280      0.014239
      4.58864      0.00346      0.01135         0.027219     -0.019153     -0.002928
      4.58894      1.42623      0.00646         0.005500      0.027635      0.014997
      9.51854      4.27281      0.01369         0.017067      0.000932     -0.000947
     -2.80632      5.69591      0.01434        -0.005367     -0.017078     -0.000129
      2.12300      4.27302      0.00000         0.022421      0.017229      0.023580
      2.12335      5.69594      0.00581         0.003959      0.005880     -0.000710
      7.05344      0.00333      0.01399         0.008788     -0.015232     -0.001547
      7.05353      1.42635      0.01368        -0.002077      0.013750     -0.006606
      8.28610      6.40752      0.01601         0.018594     -0.021005     -0.000541
     -4.03885      7.83070      0.01636         0.007961     -0.018549      0.000222
      3.35586      6.40753      0.01007        -0.014981     -0.011151     -0.003034
      3.35599      7.83072      0.01320        -0.017749     -0.007623      0.000294
     -0.34146      4.27290      0.00723         0.000490      0.020306     -0.005633
     -0.34138      5.69591      0.00946        -0.012023      0.003488      0.000357
      3.35624      2.13791      0.00222        -0.004075      0.032833      0.019206
      3.35573      3.56155      0.00139         0.032838     -0.006994      0.011152
     -1.57395      6.40758      0.01311         0.026161     -0.014839     -0.002279
     -1.57385      7.83068      0.01438         0.010435     -0.002800      0.000547
      5.82093      2.13784      0.01033         0.021878      0.006826     -0.001323
      5.82114      3.56097      0.01156         0.002455      0.001343     -0.006923
      0.89092      6.40755      0.00907         0.004300      0.000205     -0.004615
      0.89106      7.83068      0.01235        -0.007147      0.008563      0.001481
      4.58871      4.27293      0.00850        -0.022445     -0.002593     -0.011601
      4.58852      5.69606      0.01149         0.001637     -0.023215     -0.005083
      9.51845      0.00337      0.01490        -0.016777     -0.006030      0.000405
      9.51855      1.42644      0.01438        -0.030007      0.020532     -0.000962
      8.28593      2.13803      0.01453         0.002689     -0.000152      0.001547
      8.28613      3.56115      0.01464        -0.012076     -0.004077     -0.002572
      7.05356      4.27269      0.01457         0.004920     -0.008123      0.000228
      7.05362      5.69588      0.01553        -0.001358     -0.028686     -0.000875
      5.82112      6.40755      0.01489        -0.014618     -0.017690      0.000162
      5.82102      7.83073      0.01579        -0.004679     -0.019631      0.000328
      7.05363      8.54227      0.01631        -0.002762     -0.011193      0.001583
     -5.27149      9.96549      0.01495         0.001506     -0.001496     -0.002072
     -2.80638      8.54234      0.01558         0.029153     -0.015349     -0.000629
     -2.80627      9.96553      0.01362         0.018037      0.003877     -0.003612
     -0.34149      8.54239      0.01378         0.023582     -0.016821     -0.001646
     -0.34138      9.96550      0.01354         0.011754      0.010408     -0.002620
      2.12343      8.54232      0.01336        -0.012605     -0.013866     -0.000848
      2.12354      9.96544      0.01469        -0.023480      0.013820     -0.002822
      4.58846      8.54235      0.01505        -0.019268     -0.016286      0.001845
      4.58853      9.96550      0.01517        -0.024374      0.007086      0.001011
      3.04930      2.68154      5.61231        -0.031511      0.019500      0.038756
      4.02070      2.02068      5.67673        -1.674174      1.104651     -0.124953
      2.07767      3.34267      5.55286         1.666730     -1.115145      0.079901
 -----------------------------------------------------------------------------------
    total drift:                               -0.037347      0.022900      0.005889


--------------------------------------------------------------------------------------------------------



  FREE ENERGIE OF THE ION-ELECTRON SYSTEM (eV)
  ---------------------------------------------------
  free  energy   TOTEN  =      -531.06843411 eV

  energy  without entropy=     -531.06843411  energy(sigma->0) =     -531.06843411
 


--------------------------------------------------------------------------------------------------------


    POTLOK:  cpu time    2.1860: real time    2.1983


--------------------------------------------------------------------------------------------------------


 writing wavefunctions
     LOOP+:  cpu time  866.4569: real time  873.5005
    4ORBIT:  cpu time    0.0000: real time    0.0000

 total amount of memory used by VASP MPI-rank0   698619. kBytes
=======================================================================

   base      :      30000. kBytes
   nonl-proj :     230539. kBytes
   fftplans  :      40716. kBytes
   grid      :     363125. kBytes
   one-center:        162. kBytes
   wavefun   :      34077. kBytes
 
  
  
 General timing and accounting informations for this job:
 ========================================================
  
                  Total CPU time used (sec):      911.555
                            User time (sec):      884.899
                          System time (sec):       26.656
                         Elapsed time (sec):      920.101
  
                   Maximum memory used (kb):     1234808.
                   Average memory used (kb):          N/A
  
                          Minor page faults:       139035
                          Major page faults:           73
                 Voluntary context switches:         3664
