 vasp.6.2.1 16May21 (build Nov 06 2021 14:46:37) complex                        
  
 executed on             LinuxIFC date 2025.04.16  23:34:11
 running on  112 total cores
 distrk:  each k-point on   56 cores,    2 groups
 distr:  one band on NCORE=   1 cores,   56 groups


--------------------------------------------------------------------------------------------------------


 INCAR:
   ALGO = Conjugate
   KPAR = 2
   NCORE = 32
   ISMEAR = 0
   SIGMA = 0.01
   PREC = Accurate
   EDIFF = 1E-7
   ENCUT = 1000
   ISIF = 0
   METAGGA = SCAN
   LASPH = .TRUE.
   SYMPREC = 1E-7

 POTCAR:    PAW_PBE C_h 06Feb2004                 
 POTCAR:    PAW_PBE O_h 06Feb2004                 
 -----------------------------------------------------------------------------
|                                                                             |
|           W    W    AA    RRRRR   N    N  II  N    N   GGGG   !!!           |
|           W    W   A  A   R    R  NN   N  II  NN   N  G    G  !!!           |
|           W    W  A    A  R    R  N N  N  II  N N  N  G       !!!           |
|           W WW W  AAAAAA  RRRRR   N  N N  II  N  N N  G  GGG   !            |
|           WW  WW  A    A  R   R   N   NN  II  N   NN  G    G                |
|           W    W  A    A  R    R  N    N  II  N    N   GGGG   !!!           |
|                                                                             |
|     The value NCORE = 32 specified in the INCAR file was overwritten,       |
|     because it was not compatible with the 56 processes available:          |
|     NCORE = 1                                                               |
|     was used instead, please check that this makes sense for your           |
|     machine.                                                                |
|                                                                             |
 -----------------------------------------------------------------------------

 -----------------------------------------------------------------------------
|                                                                             |
|           W    W    AA    RRRRR   N    N  II  N    N   GGGG   !!!           |
|           W    W   A  A   R    R  NN   N  II  NN   N  G    G  !!!           |
|           W    W  A    A  R    R  N N  N  II  N N  N  G       !!!           |
|           W WW W  AAAAAA  RRRRR   N  N N  II  N  N N  G  GGG   !            |
|           WW  WW  A    A  R   R   N   NN  II  N   NN  G    G                |
|           W    W  A    A  R    R  N    N  II  N    N   GGGG   !!!           |
|                                                                             |
|     For optimal performance we recommend to set                             |
|       NCORE = 2 up to number-of-cores-per-socket                            |
|     NCORE specifies how many cores store one orbital (NPAR=cpu/NCORE).      |
|     This setting can greatly improve the performance of VASP for DFT.       |
|     The default, NCORE=1 might be grossly inefficient on modern             |
|     multi-core architectures or massively parallel machines. Do your        |
|     own testing! More info at https://www.vasp.at/wiki/index.php/NCORE      |
|     Unfortunately you need to use the default for GW and RPA                |
|     calculations (for HF NCORE is supported but not extensively tested      |
|     yet).                                                                   |
|                                                                             |
 -----------------------------------------------------------------------------

 POTCAR:    PAW_PBE C_h 06Feb2004                 
   VRHFIN =C: s2p2                                                                                  
   LEXCH  = PE                                                                                      
   EATOM  =   147.1560 eV,   10.8157 Ry                                                             
                                                                                                    
   TITEL  = PAW_PBE C_h 06Feb2004                                                                   
   LULTRA =        F    use ultrasoft PP ?                                                          
   IUNSCR =        1    unscreen: 0-lin 1-nonlin 2-no                                               
   RPACOR =    0.800    partial core radius                                                         
   POMASS =   12.011; ZVAL   =    4.000    mass and valenz                                          
   RCORE  =    1.100    outmost cutoff radius                                                       
   RWIGS  =    1.630; RWIGS  =    0.863    wigner-seitz radius (au A)                               
   ENMAX  =  700.000; ENMIN  =  500.000 eV                                                          
   ICORE  =        2    local potential                                                             
   LCOR   =        T    correct aug charges                                                         
   LPAW   =        T    paw PP                                                                      
   EAUG   =  946.768                                                                                
   DEXC   =    0.000                                                                                
   RMAX   =    1.128    core radius for proj-oper                                                   
   RAUG   =    1.300    factor for augmentation sphere                                              
   RDEP   =    1.162    radius for radial grids                                                     
   RDEPT  =    1.088    core radius for aug-charge                                                  
                                                                                                    
   Atomic configuration                                                                             
    4 entries                                                                                       
     n  l   j            E        occ.                                                              
     1  0  0.50      -273.3789   2.0000                                                             
     2  0  0.50       -13.7508   2.0000                                                             
     2  1  0.50        -5.2854   2.0000                                                             
     3  2  1.50        -5.4423   0.0000                                                             
   Description                                                                                      
     l       E           TYP  RCUT    TYP  RCUT                                                     
     0    -13.7508458     23  1.100                                                                 
     0     -8.2022199     23  1.100                                                                 
     1     -5.2854383     23  1.100                                                                 
     1      1.1560700     23  1.100                                                                 
     2     -5.4423304      7  1.100                                                                 
  local pseudopotential read in
  partial core-charges read in
  partial kinetic energy density read in
  atomic valenz-charges read in
  non local Contribution for L=           0  read in
    real space projection operators read in
  non local Contribution for L=           0  read in
    real space projection operators read in
  non local Contribution for L=           1  read in
    real space projection operators read in
  non local Contribution for L=           1  read in
    real space projection operators read in
    PAW grid and wavefunctions read in
 
   number of l-projection  operators is LMAX  =           4
   number of lm-projection operators is LMMAX =           8
 
 POTCAR:    PAW_PBE O_h 06Feb2004                 
   VRHFIN =O: s2p4                                                                                  
   LEXCH  = PE                                                                                      
   EATOM  =   432.3788 eV,   31.7789 Ry                                                             
                                                                                                    
   TITEL  = PAW_PBE O_h 06Feb2004                                                                   
   LULTRA =        F    use ultrasoft PP ?                                                          
   IUNSCR =        1    unscreen: 0-lin 1-nonlin 2-no                                               
   RPACOR =    0.800    partial core radius                                                         
   POMASS =   16.000; ZVAL   =    6.000    mass and valenz                                          
   RCORE  =    1.100    outmost cutoff radius                                                       
   RWIGS  =    1.400; RWIGS  =    0.741    wigner-seitz radius (au A)                               
   ENMAX  =  700.000; ENMIN  =  500.000 eV                                                          
   ICORE  =        2    local potential                                                             
   LCOR   =        T    correct aug charges                                                         
   LPAW   =        T    paw PP                                                                      
   EAUG   =  888.804                                                                                
   DEXC   =    0.000                                                                                
   RMAX   =    1.128    core radius for proj-oper                                                   
   RAUG   =    1.300    factor for augmentation sphere                                              
   RDEP   =    1.125    radius for radial grids                                                     
   RDEPT  =    1.088    core radius for aug-charge                                                  
                                                                                                    
   Atomic configuration                                                                             
    4 entries                                                                                       
     n  l   j            E        occ.                                                              
     1  0  0.50      -514.6923   2.0000                                                             
     2  0  0.50       -23.9615   2.0000                                                             
     2  1  0.50        -9.0305   4.0000                                                             
     3  2  1.50        -9.5241   0.0000                                                             
   Description                                                                                      
     l       E           TYP  RCUT    TYP  RCUT                                                     
     0    -23.9615319     23  1.100                                                                 
     0    -25.3221145     23  1.100                                                                 
     1     -9.0304911     23  1.100                                                                 
     1     -5.4802209     23  1.100                                                                 
     2     -9.5240782      7  1.100                                                                 
  local pseudopotential read in
  partial core-charges read in
  partial kinetic energy density read in
  atomic valenz-charges read in
  non local Contribution for L=           0  read in
    real space projection operators read in
  non local Contribution for L=           0  read in
    real space projection operators read in
  non local Contribution for L=           1  read in
    real space projection operators read in
  non local Contribution for L=           1  read in
    real space projection operators read in
    PAW grid and wavefunctions read in
 
   number of l-projection  operators is LMAX  =           4
   number of lm-projection operators is LMMAX =           8
 
 -----------------------------------------------------------------------------
|                                                                             |
|               ----> ADVICE to this user running VASP <----                  |
|                                                                             |
|     You have a (more or less) 'large supercell' and for larger cells it     |
|     might be more efficient to use real-space projection operators.         |
|     Therefore, try LREAL= Auto in the INCAR file.                           |
|     Mind: For very accurate calculation, you might also keep the            |
|     reciprocal projection scheme (i.e. LREAL=.FALSE.).                      |
|                                                                             |
 -----------------------------------------------------------------------------

  PAW_PBE C_h 06Feb2004                 :
 energy of atom  1       EATOM= -147.1560
 kinetic energy error for atom=    0.0031 (will be added to EATOM!!)
  PAW_PBE O_h 06Feb2004                 :
 energy of atom  2       EATOM= -432.3788
 kinetic energy error for atom=    0.0171 (will be added to EATOM!!)
 
 
 POSCAR:  C  O
  positions in cartesian coordinates
  No initial velocities read in

 METAGGA = SCAN     LMAXTAU =  6    LMIXTAU =  F

 exchange correlation table for  LEXCH =        8
   RHO(1)=    0.500       N(1)  =     2000
   RHO(2)=  100.500       N(2)  =     4000
 


--------------------------------------------------------------------------------------------------------


 ion  position               nearest neighbor table
   1  0.972  0.000  0.001-  50 1.42   2 1.42  42 1.42
   2  0.039  0.134  0.000-   5 1.42   7 1.42   1 1.42
   3  0.172  0.000  0.000-  42 1.42  44 1.42   4 1.42
   4  0.239  0.134  0.000-   7 1.42   3 1.42  23 1.42
   5  0.972  0.200  0.000-   6 1.42   2 1.42  34 1.42
   6  0.039  0.334  0.000-   5 1.42  21 1.42  11 1.42
   7  0.172  0.200  0.000-   8 1.42   2 1.42   4 1.42
   8  0.239  0.334  0.000-  13 1.42   7 1.42  21 1.42
   9  0.372  0.000  0.000-  10 1.42  44 1.42  46 1.42
  10  0.439  0.134  0.000-  27 1.42   9 1.42  23 1.42
  11  0.972  0.400  0.001-  12 1.42  36 1.42   6 1.42
  12  0.039  0.534  0.001-  25 1.42  11 1.42  17 1.42
  13  0.372  0.400  0.000-   8 1.42  14 1.42  24 1.42
  14  0.439  0.534  0.000-  13 1.42  29 1.42  19 1.42
  15  0.572  0.000  0.001-  46 1.42  16 1.42  48 1.42
  16  0.639  0.134  0.001-  15 1.42  35 1.42  27 1.42
  17  0.972  0.600  0.001-  38 1.42  18 1.42  12 1.42
  18  0.039  0.734  0.001-  43 1.42  41 1.42  17 1.42
  19  0.572  0.600  0.000-  14 1.42  20 1.42  32 1.42
  20  0.639  0.734  0.001-  49 1.42  19 1.42  47 1.42
  21  0.172  0.400  0.000-  22 1.42   8 1.42   6 1.42
  22  0.239  0.534  0.000-  21 1.42  29 1.42  25 1.42
  23  0.372  0.200  0.000-  10 1.42   4 1.42  24 1.42
  24  0.439  0.334  0.000-  13 1.42  31 1.42  23 1.42
  25  0.172  0.600  0.001-  26 1.42  12 1.42  22 1.42
  26  0.239  0.734  0.001-  25 1.42  45 1.42  43 1.42
  27  0.572  0.200  0.000-  10 1.42  28 1.42  16 1.42
  28  0.639  0.334  0.000-  27 1.42  37 1.42  31 1.42
  29  0.372  0.600  0.000-  22 1.42  14 1.42  30 1.42
  30  0.439  0.734  0.000-  47 1.42  29 1.42  45 1.42
  31  0.572  0.400  0.000-  32 1.42  28 1.42  24 1.42
  32  0.639  0.534  0.000-  31 1.42  39 1.42  19 1.42
  33  0.772  0.000  0.001-  34 1.42  48 1.42  50 1.42
  34  0.839  0.134  0.001-  33 1.42   5 1.42  35 1.42
  35  0.772  0.200  0.001-  36 1.42  16 1.42  34 1.42
  36  0.839  0.334  0.001-  35 1.42  11 1.42  37 1.42
  37  0.772  0.400  0.001-  28 1.42  38 1.42  36 1.42
  38  0.839  0.534  0.001-  17 1.42  37 1.42  39 1.42
  39  0.772  0.600  0.001-  40 1.42  38 1.42  32 1.42
  40  0.839  0.734  0.001-  39 1.42  49 1.42  41 1.42
  41  0.972  0.800  0.001-  18 1.42  42 1.42  40 1.42
  42  0.039  0.934  0.001-   3 1.42  41 1.42   1 1.42
  43  0.172  0.800  0.001-  18 1.42  44 1.42  26 1.42
  44  0.239  0.934  0.001-   9 1.42  43 1.42   3 1.42
  45  0.372  0.800  0.001-  26 1.42  46 1.42  30 1.42
  46  0.439  0.934  0.001-  15 1.42  45 1.42   9 1.42
  47  0.572  0.800  0.001-  30 1.42  48 1.42  20 1.42
  48  0.639  0.934  0.001-  47 1.42  33 1.42  15 1.42
  49  0.772  0.800  0.001-  50 1.42  20 1.42  40 1.42
  50  0.839  0.934  0.001-  49 1.42   1 1.42  33 1.42
  51  0.373  0.251  0.356-  52 1.18  53 1.18
  52  0.421  0.189  0.359-  51 1.18
  53  0.325  0.313  0.354-  51 1.18
 
  LATTYP: Found a hexagonal cell.
 ALAT       =    12.3250000000
 C/A-ratio  =     2.0283975659
  
  Lattice vectors:
  
 A1 = (  12.3250000000,   0.0000000000,   0.0000000000)
 A2 = (  -6.1625000000,  10.6737631016,   0.0000000000)
 A3 = (   0.0000000000,   0.0000000000,  25.0000000000)


Analysis of symmetry for initial positions (statically):
=====================================================================
 Subroutine PRICEL returns:
 Original cell was already a primitive cell.
 

 Routine SETGRP: Setting up the symmetry group for a 
 hexagonal supercell.


 Subroutine GETGRP returns: Found  1 space group operations
 (whereof  1 operations were pure point group operations)
 out of a pool of 24 trial point group operations.


The static configuration has the point symmetry C_1 .


Analysis of symmetry for dynamics (positions and initial velocities):
=====================================================================
 Subroutine PRICEL returns:
 Original cell was already a primitive cell.
 

 Routine SETGRP: Setting up the symmetry group for a 
 hexagonal supercell.


 Subroutine GETGRP returns: Found  1 space group operations
 (whereof  1 operations were pure point group operations)
 out of a pool of 24 trial point group operations.


The dynamic configuration has the point symmetry C_1 .


 Subroutine INISYM returns: Found  1 space group operations
 (whereof  1 operations are pure point group operations),
 and found     1 'primitive' translations


----------------------------------------------------------------------------------------

                                     Primitive cell                                     

  volume of cell :    3288.8533

  direct lattice vectors                    reciprocal lattice vectors
    12.325000000  0.000000000  0.000000000     0.081135903  0.046843835  0.000000000
    -6.162500000 10.673763102  0.000000000     0.000000000  0.093687670  0.000000000
     0.000000000  0.000000000 25.000000000     0.000000000  0.000000000  0.040000000

  length of vectors
    12.325000000 12.325000000 25.000000000     0.093687670  0.093687670  0.040000000

  position of ions in fractional coordinates (direct lattice)
     0.972450841  0.000320818  0.000566711
     0.039118382  0.133659505  0.000440173
     0.172443627  0.000295449  0.000499628
     0.239096278  0.133647917  0.000256468
     0.972452058  0.200322012  0.000485219
     0.039128360  0.333643771  0.000444150
     0.172451764  0.200354552  0.000219167
     0.239124359  0.333665720  0.000072260
     0.372465565  0.000324403  0.000453913
     0.439137473  0.133619939  0.000258338
     0.972449824  0.400309362  0.000547611
     0.039124981  0.533636789  0.000573410
     0.372416176  0.400329481  0.000000000
     0.439099602  0.533638981  0.000232414
     0.572443676  0.000312125  0.000559580
     0.639110207  0.133631751  0.000547275
     0.972452703  0.600305653  0.000640289
     0.039124495  0.733640359  0.000654513
     0.572433471  0.600306242  0.000402895
     0.639111888  0.733641879  0.000527905
     0.172454630  0.400318228  0.000289045
     0.239120185  0.533636548  0.000378509
     0.372459750  0.200295993  0.000088997
     0.439107096  0.333673419  0.000055762
     0.172452155  0.600311506  0.000524340
     0.239123371  0.733638574  0.000575129
     0.572431082  0.200289171  0.000413296
     0.639112773  0.333618630  0.000462376
     0.372439808  0.600308022  0.000362844
     0.439116090  0.733637858  0.000494190
     0.572469358  0.400320504  0.000339918
     0.639119408  0.533650873  0.000459610
     0.772445723  0.000315427  0.000596161
     0.839116277  0.133640203  0.000575306
     0.772440513  0.200307432  0.000581033
     0.839120241  0.333635728  0.000585467
     0.772446320  0.400298367  0.000582978
     0.839118980  0.533633964  0.000621100
     0.772456143  0.600308173  0.000595712
     0.839115033  0.733643180  0.000631512
     0.972455313  0.800305582  0.000652233
     0.039114714  0.933643289  0.000598051
     0.172457971  0.800312211  0.000623372
     0.239134551  0.933647193  0.000544850
     0.372451396  0.800316674  0.000551399
     0.439124489  0.933644769  0.000541430
     0.572441101  0.800310054  0.000534535
     0.639115067  0.933638985  0.000587644
     0.772445098  0.800313187  0.000602062
     0.839116614  0.933644338  0.000606830
     0.373021009  0.251226878  0.356359487
     0.420879805  0.189313152  0.358936362
     0.325156981  0.313167186  0.353981292

  ion indices of the primitive-cell ions
   primitive index   ion index
                 1           1
                 2           2
                 3           3
                 4           4
                 5           5
                 6           6
                 7           7
                 8           8
                 9           9
                10          10
                11          11
                12          12
                13          13
                14          14
                15          15
                16          16
                17          17
                18          18
                19          19
                20          20
                21          21
                22          22
                23          23
                24          24
                25          25
                26          26
                27          27
                28          28
                29          29
                30          30
                31          31
                32          32
                33          33
                34          34
                35          35
                36          36
                37          37
                38          38
                39          39
                40          40
                41          41
                42          42
                43          43
                44          44
                45          45
                46          46
                47          47
                48          48
                49          49
                50          50
                51          51
                52          52
                53          53

----------------------------------------------------------------------------------------

 
 
 KPOINTS: auto                                    

Automatic generation of k-mesh.
 Grid dimensions read from file:
 generate k-points for:    1    1    1

 Generating k-lattice:

  Cartesian coordinates                     Fractional coordinates (reciprocal lattice)
     0.081135903  0.046843835  0.000000000     1.000000000 -0.000000000  0.000000000
     0.000000000  0.093687670  0.000000000     0.000000000  1.000000000  0.000000000
     0.000000000  0.000000000  0.040000000     0.000000000  0.000000000  1.000000000

  Length of vectors
     0.093687670  0.093687670  0.040000000

  Shift w.r.t. Gamma in fractional coordinates (k-lattice)
     0.000000000  0.000000000  0.000000000

 
 Subroutine IBZKPT returns following result:
 ===========================================
 
 Found      1 irreducible k-points:
 
 Following reciprocal coordinates:
            Coordinates               Weight
  0.000000  0.000000  0.000000      1.000000
 
 Following cartesian coordinates:
            Coordinates               Weight
  0.000000  0.000000  0.000000      1.000000
 


--------------------------------------------------------------------------------------------------------




 Dimension of arrays:
   k-points           NKPTS =      1   k-points in BZ     NKDIM =      1   number of bands    NBANDS=    168
   number of dos      NEDOS =    301   number of ions     NIONS =     53
   non local maximal  LDIM  =      4   non local SUM 2l+1 LMDIM =      8
   total plane-waves  NPLWV = ******
   max r-space proj   IRMAX =      1   max aug-charges    IRDMAX=  10008
   dimension x,y,z NGX =   128 NGY =  128 NGZ =  270
   dimension x,y,z NGXF=   256 NGYF=  256 NGZF=  540
   support grid    NGXF=   256 NGYF=  256 NGZF=  540
   ions per type =              51   2
   NGX,Y,Z   is equivalent  to a cutoff of  17.27, 17.27, 17.95 a.u.
   NGXF,Y,Z  is equivalent  to a cutoff of  34.53, 34.53, 35.91 a.u.

 SYSTEM =  unknown system                          
 POSCAR =   C  O                                   

 Startparameter for this run:
   NWRITE =      2    write-flag & timer
   PREC   = accura    normal or accurate (medium, high low for compatibility)
   ISTART =      0    job   : 0-new  1-cont  2-samecut
   ICHARG =      2    charge: 1-file 2-atom 10-const
   ISPIN  =      1    spin polarized calculation?
   LNONCOLLINEAR =      F non collinear calculations
   LSORBIT =      F    spin-orbit coupling
   INIWAV =      1    electr: 0-lowe 1-rand  2-diag
   LASPH  =      T    aspherical Exc in radial PAW
 Electronic Relaxation 1
   ENCUT  = 1000.0 eV  73.50 Ry    8.57 a.u.  31.78 31.78 64.46*2*pi/ulx,y,z
   ENINI  = 1000.0     initial cutoff
   ENAUG  =  946.8 eV  augmentation charge cutoff
   NELM   =     60;   NELMIN=  2; NELMDL= -5     # of ELM steps 
   EDIFF  = 0.1E-06   stopping-criterion for ELM
   LREAL  =      F    real-space projection
   NLSPLINE    = F    spline interpolate recip. space projectors
   LCOMPAT=      F    compatible to vasp.4.4
   GGA_COMPAT  = T    GGA compatible to vasp.4.4-vasp.4.6
   LMAXPAW     = -100 max onsite density
   LMAXMIX     =    2 max onsite mixed and CHGCAR
   VOSKOWN=      0    Vosko Wilk Nusair interpolation
   ROPT   =    0.00000   0.00000
 Ionic relaxation
   EDIFFG = 0.1E-05   stopping-criterion for IOM
   NSW    =      0    number of steps for IOM
   NBLOCK =      1;   KBLOCK =      1    inner block; outer block 
   IBRION =     -1    ionic relax: 0-MD 1-quasi-New 2-CG
   NFREE  =      0    steps in history (QN), initial steepest desc. (CG)
   ISIF   =      0    stress and relaxation
   IWAVPR =     10    prediction:  0-non 1-charg 2-wave 3-comb
   ISYM   =      2    0-nonsym 1-usesym 2-fastsym
   LCORR  =      T    Harris-Foulkes like correction to forces

   POTIM  = 0.5000    time-step for ionic-motion
   TEIN   =    0.0    initial temperature
   TEBEG  =    0.0;   TEEND  =   0.0 temperature during run
   SMASS  =  -3.00    Nose mass-parameter (am)
   estimated Nose-frequenzy (Omega)   =  0.10E-29 period in steps = 0.13E+47 mass=  -0.347E-26a.u.
   SCALEE = 1.0000    scale energy and forces
   NPACO  =    256;   APACO  = 16.0  distance and # of slots for P.C.
   PSTRESS=    0.0 pullay stress

  Mass of Ions in am
   POMASS =  12.01 16.00
  Ionic Valenz
   ZVAL   =   4.00  6.00
  Atomic Wigner-Seitz radii
   RWIGS  =  -1.00 -1.00
  virtual crystal weights 
   VCA    =   1.00  1.00
   NELECT =     216.0000    total number of electrons
   NUPDOWN=      -1.0000    fix difference up-down

 DOS related values:
   EMIN   =  10.00;   EMAX   =-10.00  energy-range for DOS
   EFERMI =   0.00
   ISMEAR =     0;   SIGMA  =   0.01  broadening in eV -4-tet -1-fermi 0-gaus

 Electronic relaxation 2 (details)
   IALGO  =     58    algorithm
   LDIAG  =      T    sub-space diagonalisation (order eigenvalues)
   LSUBROT=      F    optimize rotation matrix (better conditioning)
   TURBO    =      0    0=normal 1=particle mesh
   IRESTART =      0    0=no restart 2=restart with 2 vectors
   NREBOOT  =      0    no. of reboots
   NMIN     =      0    reboot dimension
   EREF     =   0.00    reference energy to select bands
   IMIX   =      4    mixing-type and parameters
     AMIX     =   0.40;   BMIX     =  1.00
     AMIX_MAG =   1.60;   BMIX_MAG =  1.00
     AMIN     =   0.10
     WC   =   100.;   INIMIX=   1;  MIXPRE=   1;  MAXMIX= -45

 Intra band minimization:
   WEIMIN = 0.0000     energy-eigenvalue tresh-hold
   EBREAK =  0.15E-09  absolut break condition
   DEPER  =   0.30     relativ break condition  

   TIME   =   0.40     timestep for ELM

  volume/ion in A,a.u.               =      62.05       418.76
  Fermi-wavevector in a.u.,A,eV,Ry     =   0.660508  1.248179  5.935820  0.436270
  Thomas-Fermi vector in A             =   1.732977
 
 Write flags
   LWAVE        =      T    write WAVECAR
   LDOWNSAMPLE  =      F    k-point downsampling of WAVECAR
   LCHARG       =      T    write CHGCAR
   LVTOT        =      F    write LOCPOT, total local potential
   LVHAR        =      F    write LOCPOT, Hartree potential only
   LELF         =      F    write electronic localiz. function (ELF)
   LORBIT       =      0    0 simple, 1 ext, 2 COOP (PROOUT), +10 PAW based schemes


 Dipole corrections
   LMONO  =      F    monopole corrections only (constant potential shift)
   LDIPOL =      F    correct potential (dipole corrections)
   IDIPOL =      0    1-x, 2-y, 3-z, 4-all directions 
   EPSILON=  1.0000000 bulk dielectric constant

 Exchange correlation treatment:
   GGA     =    --    GGA type
   LEXCH   =     8    internal setting for exchange type
   VOSKOWN=      0    Vosko Wilk Nusair interpolation
   LHFCALC =     F    Hartree Fock is set to
   LHFONE  =     F    Hartree Fock one center treatment
   AEXX    =    0.0000 exact exchange contribution

 Linear response parameters
   LEPSILON=     F    determine dielectric tensor
   LRPA    =     F    only Hartree local field effects (RPA)
   LNABLA  =     F    use nabla operator in PAW spheres
   LVEL    =     F    velocity operator in full k-point grid
   LINTERFAST=   F  fast interpolation
   KINTER  =     0    interpolate to denser k-point grid
   CSHIFT  =0.1000    complex shift for real part using Kramers Kronig
   OMEGAMAX=  -1.0    maximum frequency
   DEG_THRESHOLD= 0.2000000E-02 threshold for treating states as degnerate
   RTIME   =   -0.100 relaxation time in fs
  (WPLASMAI=    0.000 imaginary part of plasma frequency in eV, 0.658/RTIME)
   DFIELD  = 0.0000000 0.0000000 0.0000000 field for delta impulse in time
 
 Orbital magnetization related:
   ORBITALMAG=     F  switch on orbital magnetization
   LCHIMAG   =     F  perturbation theory with respect to B field
   DQ        =  0.001000  dq finite difference perturbation B field
   LLRAUG    =     F  two centre corrections for induced B field



--------------------------------------------------------------------------------------------------------


 Static calculation
 charge density and potential will be updated during run
 non-spin polarized calculation
 Conjugate gradient for all bands (Freysoldt, et al. PRB 79, 241103 (2009))
 preconditioned conjugated gradient                                        
 perform sub-space diagonalisation
    before iterative eigenvector-optimisation
 modified Broyden-mixing scheme, WC =      100.0
 initial mixing is a Kerker type mixing with AMIX =  0.4000 and BMIX =      1.0000
 Hartree-type preconditioning will be used
 using additional bands           60
 reciprocal scheme for non local part
 use partial core corrections
 no Harris-corrections to forces 
 use gradient corrections 
 use of overlap-Matrix (Vanderbilt PP)
 Gauss-broadening in eV      SIGMA  =   0.01


--------------------------------------------------------------------------------------------------------


  energy-cutoff  :     1000.00
  volume of cell :     3288.85
      direct lattice vectors                 reciprocal lattice vectors
    12.325000000  0.000000000  0.000000000     0.081135903  0.046843835  0.000000000
    -6.162500000 10.673763102  0.000000000     0.000000000  0.093687670  0.000000000
     0.000000000  0.000000000 25.000000000     0.000000000  0.000000000  0.040000000

  length of vectors
    12.325000000 12.325000000 25.000000000     0.093687670  0.093687670  0.040000000


 
 k-points in units of 2pi/SCALE and weight: auto                                    
   0.00000000  0.00000000  0.00000000       1.000
 
 k-points in reciprocal lattice and weights: auto                                    
   0.00000000  0.00000000  0.00000000       1.000
 
 position of ions in fractional coordinates (direct lattice) 
   0.97245084  0.00032082  0.00056671
   0.03911838  0.13365950  0.00044017
   0.17244363  0.00029545  0.00049963
   0.23909628  0.13364792  0.00025647
   0.97245206  0.20032201  0.00048522
   0.03912836  0.33364377  0.00044415
   0.17245176  0.20035455  0.00021917
   0.23912436  0.33366572  0.00007226
   0.37246557  0.00032440  0.00045391
   0.43913747  0.13361994  0.00025834
   0.97244982  0.40030936  0.00054761
   0.03912498  0.53363679  0.00057341
   0.37241618  0.40032948  0.00000000
   0.43909960  0.53363898  0.00023241
   0.57244368  0.00031213  0.00055958
   0.63911021  0.13363175  0.00054727
   0.97245270  0.60030565  0.00064029
   0.03912449  0.73364036  0.00065451
   0.57243347  0.60030624  0.00040289
   0.63911189  0.73364188  0.00052791
   0.17245463  0.40031823  0.00028904
   0.23912018  0.53363655  0.00037851
   0.37245975  0.20029599  0.00008900
   0.43910710  0.33367342  0.00005576
   0.17245216  0.60031151  0.00052434
   0.23912337  0.73363857  0.00057513
   0.57243108  0.20028917  0.00041330
   0.63911277  0.33361863  0.00046238
   0.37243981  0.60030802  0.00036284
   0.43911609  0.73363786  0.00049419
   0.57246936  0.40032050  0.00033992
   0.63911941  0.53365087  0.00045961
   0.77244572  0.00031543  0.00059616
   0.83911628  0.13364020  0.00057531
   0.77244051  0.20030743  0.00058103
   0.83912024  0.33363573  0.00058547
   0.77244632  0.40029837  0.00058298
   0.83911898  0.53363396  0.00062110
   0.77245614  0.60030817  0.00059571
   0.83911503  0.73364318  0.00063151
   0.97245531  0.80030558  0.00065223
   0.03911471  0.93364329  0.00059805
   0.17245797  0.80031221  0.00062337
   0.23913455  0.93364719  0.00054485
   0.37245140  0.80031667  0.00055140
   0.43912449  0.93364477  0.00054143
   0.57244110  0.80031005  0.00053453
   0.63911507  0.93363899  0.00058764
   0.77244510  0.80031319  0.00060206
   0.83911661  0.93364434  0.00060683
   0.37302101  0.25122688  0.35635949
   0.42087980  0.18931315  0.35893636
   0.32515698  0.31316719  0.35398129
 
 position of ions in cartesian coordinates  (Angst):
  11.98347958  0.00342433  0.01416777
  -0.34154264  1.42664989  0.01100432
   2.12354700  0.00315355  0.01249070
   2.12325634  1.42652621  0.00641170
  10.75098721  2.13818970  0.01213047
  -1.57382270  3.56123457  0.01110375
   0.89078307  2.13853702  0.00547917
   0.89099273  3.56146885  0.00180651
   4.58863896  0.00346260  0.01134782
   4.58893648  1.42622757  0.00645846
   9.51853763  4.27280730  0.01369027
  -2.80632132  5.69591267  0.01433526
   2.12299894  4.27302204  0.00000000
   2.12335237  5.69593607  0.00581036
   7.05344483  0.00333155  0.01398950
   7.05352764  1.42635365  0.01368187
   8.28609598  6.40752033  0.01600723
  -4.03884931  7.83070339  0.01636283
   3.35585531  6.40752662  0.01007237
   3.35598594  7.83071962  0.01319763
  -0.34145776  4.27290193  0.00722612
  -0.34137895  5.69591010  0.00946273
   3.35624236  2.13791198  0.00222492
   3.35573251  3.56155103  0.00139405
  -1.57394684  6.40758280  0.01310850
  -1.57385216  7.83068434  0.01437823
   5.82093107  2.13783916  0.01033241
   5.82114012  3.56096622  0.01155939
   0.89092245  6.40754561  0.00907111
   0.89106251  7.83067670  0.01235474
   4.58870974  4.27292622  0.00849795
   4.58852320  5.69606300  0.01149026
   9.51844972  0.00336679  0.01490402
   9.51855036  1.42644387  0.01438264
   8.28593477  2.13803408  0.01452582
   8.28612680  3.56114872  0.01463668
   7.05356221  4.27268994  0.01457444
   7.05362213  5.69588251  0.01552751
   5.82112285  6.40754723  0.01489279
   5.82101669  7.83073350  0.01578780
   7.05362858  8.54227219  0.01630582
  -5.27148792  9.96548729  0.01495127
  -2.80637951  8.54234295  0.01558431
  -2.80626749  9.96552896  0.01362126
  -0.34148805  8.54239058  0.01378498
  -0.34137657  9.96550309  0.01353576
   2.12342586  8.54231992  0.01336337
   2.12354296  9.96544135  0.01469111
   4.58845581  8.54235337  0.01505154
   4.58852904  9.96549848  0.01517076
   3.04929830  2.68153618  8.90898718
   4.02070129  2.02068374  8.97340904
   2.07766701  3.34267235  8.84953231
 


--------------------------------------------------------------------------------------------------------


 k-point   1 :   0.0000 0.0000 0.0000  plane waves:  236157

 maximum and minimum number of plane-waves per node :    236157   236157

 maximum number of plane-waves:    236157
 maximum index in each direction: 
   IXMAX=   31   IYMAX=   31   IZMAX=   64
   IXMIN=  -31   IYMIN=  -31   IZMIN=  -64


 serial   3D FFT for wavefunctions
 parallel 3D FFT for charge:
    minimum data exchange during FFTs selected (reduces bandwidth)


 total amount of memory used by VASP MPI-rank0   698619. kBytes
=======================================================================

   base      :      30000. kBytes
   nonl-proj :     230539. kBytes
   fftplans  :      40716. kBytes
   grid      :     363125. kBytes
   one-center:        162. kBytes
   wavefun   :      34077. kBytes
 
     INWAV:  cpu time    0.0000: real time    0.0000
 Broyden mixing: mesh for mixing (old mesh)
   NGX = 63   NGY = 63   NGZ =129
  (NGX  =256   NGY  =256   NGZ  =540)
  gives a total of 512001 points

 initial charge density was supplied:
 charge density of overlapping atoms calculated
 number of electron     216.0000000 magnetization 
 keeping initial charge density in first step


--------------------------------------------------------------------------------------------------------


 Maximum index for augmentation-charges          471 (set IRDMAX)


--------------------------------------------------------------------------------------------------------


 First call to EWALD:  gamma=   0.119
 Maximum number of real-space cells 4x 4x 2
 Maximum number of reciprocal cells 2x 2x 4

    FEWALD:  cpu time    0.0051: real time    0.0051


--------------------------------------- Iteration      1(   1)  ---------------------------------------


    POTLOK:  cpu time    1.9713: real time    1.9833
    SETDIJ:  cpu time    0.2200: real time    0.2208
    TRIAL :  cpu time   27.9858: real time   28.2138
    CORREC:  cpu time    0.0006: real time    0.0008
    --------------------------------------------
      LOOP:  cpu time   30.1899: real time   30.4425

 eigenvalue-minimisations  :   336
 total energy-change (2. order) : 0.2538515E+04  (-0.1080588E+05)
 number of electron     216.0000000 magnetization 
 augmentation part      216.0000000 magnetization 

 Free energy of the ion-electron system (eV)
  ---------------------------------------------------
  alpha Z        PSCENC =        47.94900195
  Ewald energy   TEWEN  =     40970.05347293
  -Hartree energ DENC   =    -47039.28430944
  -exchange      EXHF   =         0.00000000
  -V(xc)+E(xc)   XCENC  =       602.79868964
  PAW double counting   =      6339.73130699    -6197.22120962
  entropy T*S    EENTRO =        -0.00000000
  eigenvalues    EBANDS =      -555.03586466
  atomic energy  EATOM  =      8369.52358910
  ---------------------------------------------------
  free energy    TOTEN  =      2538.51467689 eV

  energy without entropy =     2538.51467689  energy(sigma->0) =     2538.51467689


--------------------------------------------------------------------------------------------------------




--------------------------------------- Iteration      1(   2)  ---------------------------------------


    TRIAL :  cpu time   45.5500: real time   45.9329
    CORREC:  cpu time    0.0001: real time    0.0001
    --------------------------------------------
      LOOP:  cpu time   45.6293: real time   46.0167

 eigenvalue-minimisations  :   672
 total energy-change (2. order) :-0.2539955E+04  (-0.2418443E+04)
 number of electron     216.0000000 magnetization 
 augmentation part      216.0000000 magnetization 

 Free energy of the ion-electron system (eV)
  ---------------------------------------------------
  alpha Z        PSCENC =        47.94900195
  Ewald energy   TEWEN  =     40970.05347293
  -Hartree energ DENC   =    -47039.28430944
  -exchange      EXHF   =         0.00000000
  -V(xc)+E(xc)   XCENC  =       602.79868964
  PAW double counting   =      6339.73130699    -6197.22120962
  entropy T*S    EENTRO =        -0.00000000
  eigenvalues    EBANDS =     -3094.99127800
  atomic energy  EATOM  =      8369.52358910
  ---------------------------------------------------
  free energy    TOTEN  =        -1.44073645 eV

  energy without entropy =       -1.44073645  energy(sigma->0) =       -1.44073645


--------------------------------------------------------------------------------------------------------




--------------------------------------- Iteration      1(   3)  ---------------------------------------


    TRIAL :  cpu time   30.7979: real time   31.0643
    CORREC:  cpu time    0.0001: real time    0.0003
    --------------------------------------------
      LOOP:  cpu time   30.8174: real time   31.0936

 eigenvalue-minimisations  :   392
 total energy-change (2. order) :-0.5881284E+03  (-0.5855128E+03)
 number of electron     216.0000000 magnetization 
 augmentation part      216.0000000 magnetization 

 Free energy of the ion-electron system (eV)
  ---------------------------------------------------
  alpha Z        PSCENC =        47.94900195
  Ewald energy   TEWEN  =     40970.05347293
  -Hartree energ DENC   =    -47039.28430944
  -exchange      EXHF   =         0.00000000
  -V(xc)+E(xc)   XCENC  =       602.79868964
  PAW double counting   =      6339.73130699    -6197.22120962
  entropy T*S    EENTRO =        -0.00000000
  eigenvalues    EBANDS =     -3683.11972684
  atomic energy  EATOM  =      8369.52358910
  ---------------------------------------------------
  free energy    TOTEN  =      -589.56918529 eV

  energy without entropy =     -589.56918529  energy(sigma->0) =     -589.56918529


--------------------------------------------------------------------------------------------------------




--------------------------------------- Iteration      1(   4)  ---------------------------------------


    TRIAL :  cpu time   33.7786: real time   34.0470
    CORREC:  cpu time    0.0001: real time    0.0001
    --------------------------------------------
      LOOP:  cpu time   33.8303: real time   34.1035

 eigenvalue-minimisations  :   448
 total energy-change (2. order) :-0.3004541E+02  (-0.2980794E+02)
 number of electron     216.0000000 magnetization 
 augmentation part      216.0000000 magnetization 

 Free energy of the ion-electron system (eV)
  ---------------------------------------------------
  alpha Z        PSCENC =        47.94900195
  Ewald energy   TEWEN  =     40970.05347293
  -Hartree energ DENC   =    -47039.28430944
  -exchange      EXHF   =         0.00000000
  -V(xc)+E(xc)   XCENC  =       602.79868964
  PAW double counting   =      6339.73130699    -6197.22120962
  entropy T*S    EENTRO =        -0.00000000
  eigenvalues    EBANDS =     -3713.16513776
  atomic energy  EATOM  =      8369.52358910
  ---------------------------------------------------
  free energy    TOTEN  =      -619.61459621 eV

  energy without entropy =     -619.61459621  energy(sigma->0) =     -619.61459621


--------------------------------------------------------------------------------------------------------




--------------------------------------- Iteration      1(   5)  ---------------------------------------


    TRIAL :  cpu time   30.7655: real time   31.0676
    CORREC:  cpu time    0.0001: real time    0.0001
    CHARGE:  cpu time    2.9993: real time    3.0201
    --------------------------------------------
      LOOP:  cpu time   33.8387: real time   34.1621

 eigenvalue-minimisations  :   392
 total energy-change (2. order) :-0.1033450E+01  (-0.1031490E+01)
 number of electron     216.0000000 magnetization 
 augmentation part       -0.4312147 magnetization 

 Free energy of the ion-electron system (eV)
  ---------------------------------------------------
  alpha Z        PSCENC =        47.94900195
  Ewald energy   TEWEN  =     40970.05347293
  -Hartree energ DENC   =    -47039.28430944
  -exchange      EXHF   =         0.00000000
  -V(xc)+E(xc)   XCENC  =       602.79868964
  PAW double counting   =      6339.73130699    -6197.22120962
  entropy T*S    EENTRO =        -0.00000000
  eigenvalues    EBANDS =     -3714.19858791
  atomic energy  EATOM  =      8369.52358910
  ---------------------------------------------------
  free energy    TOTEN  =      -620.64804636 eV

  energy without entropy =     -620.64804636  energy(sigma->0) =     -620.64804636


--------------------------------------------------------------------------------------------------------




--------------------------------------- Iteration      1(   6)  ---------------------------------------


    POTLOK:  cpu time    1.9376: real time    1.9480
    SETDIJ:  cpu time    0.2346: real time    0.2353
    TRIAL :  cpu time   19.9725: real time   20.1221
    CORREC:  cpu time    9.2253: real time    9.2877
    CHARGE:  cpu time    2.9811: real time    3.0017
    --------------------------------------------
      LOOP:  cpu time   34.3908: real time   34.6462

 eigenvalue-minimisations  :     0
 total energy-change (2. order) : 0.1041114E+03  (-0.1205392E+02)
 number of electron     216.0000000 magnetization 
 augmentation part       -0.4907872 magnetization 

 Free energy of the ion-electron system (eV)
  ---------------------------------------------------
  alpha Z        PSCENC =        47.94900195
  Ewald energy   TEWEN  =     40970.05347293
  -Hartree energ DENC   =    -48399.74402529
  -exchange      EXHF   =         0.00000000
  -V(xc)+E(xc)   XCENC  =       669.75077118
  PAW double counting   =    113833.52596418  -113696.75232745
  entropy T*S    EENTRO =        -0.00000000
  eigenvalues    EBANDS =     -2310.84310076
  atomic energy  EATOM  =      8369.52358910
  ---------------------------------------------------
  free energy    TOTEN  =      -516.53665414 eV

  energy without entropy =     -516.53665414  energy(sigma->0) =     -516.53665414


--------------------------------------------------------------------------------------------------------




--------------------------------------- Iteration      1(   7)  ---------------------------------------


    POTLOK:  cpu time    1.9179: real time    1.9277
    SETDIJ:  cpu time    0.2386: real time    0.2394
    TRIAL :  cpu time   19.9897: real time   20.1379
    CORREC:  cpu time    9.2241: real time    9.2854
    CHARGE:  cpu time    2.9832: real time    3.0036
    --------------------------------------------
      LOOP:  cpu time   34.4336: real time   34.6809

 eigenvalue-minimisations  :     0
 total energy-change (2. order) :-0.1206944E+02  (-0.1587724E+01)
 number of electron     216.0000000 magnetization 
 augmentation part       -0.5213881 magnetization 

 Free energy of the ion-electron system (eV)
  ---------------------------------------------------
  alpha Z        PSCENC =        47.94900195
  Ewald energy   TEWEN  =     40970.05347293
  -Hartree energ DENC   =    -47973.28247605
  -exchange      EXHF   =         0.00000000
  -V(xc)+E(xc)   XCENC  =       649.89274784
  PAW double counting   =    131990.31560619  -131850.79671239
  entropy T*S    EENTRO =        -0.00000000
  eigenvalues    EBANDS =     -2732.26132237
  atomic energy  EATOM  =      8369.52358910
  ---------------------------------------------------
  free energy    TOTEN  =      -528.60609280 eV

  energy without entropy =     -528.60609280  energy(sigma->0) =     -528.60609280


--------------------------------------------------------------------------------------------------------




--------------------------------------- Iteration      1(   8)  ---------------------------------------


    POTLOK:  cpu time    1.9228: real time    1.9335
    SETDIJ:  cpu time    0.2409: real time    0.2417
    TRIAL :  cpu time   19.9577: real time   20.1271
    CORREC:  cpu time    9.2249: real time    9.2872
    CHARGE:  cpu time    2.9827: real time    3.0069
    --------------------------------------------
      LOOP:  cpu time   34.3573: real time   34.6433

 eigenvalue-minimisations  :     0
 total energy-change (2. order) :-0.1587518E+01  (-0.5267015E+00)
 number of electron     216.0000000 magnetization 
 augmentation part       -0.5195095 magnetization 

 Free energy of the ion-electron system (eV)
  ---------------------------------------------------
  alpha Z        PSCENC =        47.94900195
  Ewald energy   TEWEN  =     40970.05347293
  -Hartree energ DENC   =    -47942.58593993
  -exchange      EXHF   =         0.00000000
  -V(xc)+E(xc)   XCENC  =       648.30651746
  PAW double counting   =    139978.32745623  -139838.32730361
  entropy T*S    EENTRO =        -0.00000000
  eigenvalues    EBANDS =     -2763.44040488
  atomic energy  EATOM  =      8369.52358910
  ---------------------------------------------------
  free energy    TOTEN  =      -530.19361074 eV

  energy without entropy =     -530.19361074  energy(sigma->0) =     -530.19361074


--------------------------------------------------------------------------------------------------------




--------------------------------------- Iteration      1(   9)  ---------------------------------------


    POTLOK:  cpu time    1.9249: real time    1.9353
    SETDIJ:  cpu time    0.2344: real time    0.2352
    TRIAL :  cpu time   19.9848: real time   20.1317
    CORREC:  cpu time    9.2069: real time    9.2940
    CHARGE:  cpu time    2.9864: real time    3.0074
    --------------------------------------------
      LOOP:  cpu time   34.3682: real time   34.6390

 eigenvalue-minimisations  :     0
 total energy-change (2. order) :-0.5263352E+00  (-0.2095023E+00)
 number of electron     216.0000000 magnetization 
 augmentation part       -0.5141803 magnetization 

 Free energy of the ion-electron system (eV)
  ---------------------------------------------------
  alpha Z        PSCENC =        47.94900195
  Ewald energy   TEWEN  =     40970.05347293
  -Hartree energ DENC   =    -47950.39112222
  -exchange      EXHF   =         0.00000000
  -V(xc)+E(xc)   XCENC  =       648.04653004
  PAW double counting   =    146286.01841910  -146145.81682219
  entropy T*S    EENTRO =        -0.00000000
  eigenvalues    EBANDS =     -2756.10301463
  atomic energy  EATOM  =      8369.52358910
  ---------------------------------------------------
  free energy    TOTEN  =      -530.71994592 eV

  energy without entropy =     -530.71994592  energy(sigma->0) =     -530.71994592


--------------------------------------------------------------------------------------------------------




--------------------------------------- Iteration      1(  10)  ---------------------------------------


    POTLOK:  cpu time    1.9323: real time    1.9428
    SETDIJ:  cpu time    0.2299: real time    0.2307
    TRIAL :  cpu time   19.9759: real time   20.1303
    CORREC:  cpu time    9.2243: real time    9.2951
    CHARGE:  cpu time    2.9806: real time    3.0017
    --------------------------------------------
      LOOP:  cpu time   34.3618: real time   34.6215

 eigenvalue-minimisations  :     0
 total energy-change (2. order) :-0.2091828E+00  (-0.8818220E-01)
 number of electron     216.0000000 magnetization 
 augmentation part       -0.5076496 magnetization 

 Free energy of the ion-electron system (eV)
  ---------------------------------------------------
  alpha Z        PSCENC =        47.94900195
  Ewald energy   TEWEN  =     40970.05347293
  -Hartree energ DENC   =    -47950.15474903
  -exchange      EXHF   =         0.00000000
  -V(xc)+E(xc)   XCENC  =       647.82925877
  PAW double counting   =    148815.62290440  -148675.31953967
  entropy T*S    EENTRO =        -0.00000000
  eigenvalues    EBANDS =     -2756.43306720
  atomic energy  EATOM  =      8369.52358910
  ---------------------------------------------------
  free energy    TOTEN  =      -530.92912875 eV

  energy without entropy =     -530.92912875  energy(sigma->0) =     -530.92912875


--------------------------------------------------------------------------------------------------------




--------------------------------------- Iteration      1(  11)  ---------------------------------------


    POTLOK:  cpu time    1.9336: real time    1.9441
    SETDIJ:  cpu time    0.2333: real time    0.2341
    TRIAL :  cpu time   19.9737: real time   20.1236
    CORREC:  cpu time    9.2387: real time    9.2990
    CHARGE:  cpu time    2.9767: real time    2.9986
    --------------------------------------------
      LOOP:  cpu time   34.4073: real time   34.6577

 eigenvalue-minimisations  :     0
 total energy-change (2. order) :-0.8800071E-01  (-0.3450109E-01)
 number of electron     216.0000000 magnetization 
 augmentation part       -0.5037649 magnetization 

 Free energy of the ion-electron system (eV)
  ---------------------------------------------------
  alpha Z        PSCENC =        47.94900195
  Ewald energy   TEWEN  =     40970.05347293
  -Hartree energ DENC   =    -47944.21535784
  -exchange      EXHF   =         0.00000000
  -V(xc)+E(xc)   XCENC  =       647.68667557
  PAW double counting   =    148694.86221640  -148554.55832906
  entropy T*S    EENTRO =        -0.00000000
  eigenvalues    EBANDS =     -2762.31839850
  atomic energy  EATOM  =      8369.52358910
  ---------------------------------------------------
  free energy    TOTEN  =      -531.01712946 eV

  energy without entropy =     -531.01712946  energy(sigma->0) =     -531.01712946


--------------------------------------------------------------------------------------------------------




--------------------------------------- Iteration      1(  12)  ---------------------------------------


    POTLOK:  cpu time    1.9318: real time    1.9422
    SETDIJ:  cpu time    0.2335: real time    0.2343
    TRIAL :  cpu time   19.9147: real time   20.1090
    CORREC:  cpu time    9.2143: real time    9.2915
    CHARGE:  cpu time    2.9766: real time    2.9994
    --------------------------------------------
      LOOP:  cpu time   34.2944: real time   34.6462

 eigenvalue-minimisations  :     0
 total energy-change (2. order) :-0.3447000E-01  (-0.1108346E-01)
 number of electron     216.0000000 magnetization 
 augmentation part       -0.5037349 magnetization 

 Free energy of the ion-electron system (eV)
  ---------------------------------------------------
  alpha Z        PSCENC =        47.94900195
  Ewald energy   TEWEN  =     40970.05347293
  -Hartree energ DENC   =    -47939.49691135
  -exchange      EXHF   =         0.00000000
  -V(xc)+E(xc)   XCENC  =       647.58785821
  PAW double counting   =    147970.72945982  -147830.45287090
  entropy T*S    EENTRO =        -0.00000000
  eigenvalues    EBANDS =     -2766.94519922
  atomic energy  EATOM  =      8369.52358910
  ---------------------------------------------------
  free energy    TOTEN  =      -531.05159946 eV

  energy without entropy =     -531.05159946  energy(sigma->0) =     -531.05159946


--------------------------------------------------------------------------------------------------------




--------------------------------------- Iteration      1(  13)  ---------------------------------------


    POTLOK:  cpu time    1.9319: real time    1.9434
    SETDIJ:  cpu time    0.2290: real time    0.2301
    TRIAL :  cpu time   19.9322: real time   20.1100
    CORREC:  cpu time    9.2302: real time    9.2932
    CHARGE:  cpu time    2.9952: real time    3.0161
    --------------------------------------------
      LOOP:  cpu time   34.4021: real time   34.6859

 eigenvalue-minimisations  :     0
 total energy-change (2. order) :-0.1109359E-01  (-0.3116876E-02)
 number of electron     216.0000000 magnetization 
 augmentation part       -0.5044356 magnetization 

 Free energy of the ion-electron system (eV)
  ---------------------------------------------------
  alpha Z        PSCENC =        47.94900195
  Ewald energy   TEWEN  =     40970.05347293
  -Hartree energ DENC   =    -47938.05748413
  -exchange      EXHF   =         0.00000000
  -V(xc)+E(xc)   XCENC  =       647.54134567
  PAW double counting   =    147410.62214834  -147270.35959937
  entropy T*S    EENTRO =        -0.00000000
  eigenvalues    EBANDS =     -2768.33516753
  atomic energy  EATOM  =      8369.52358910
  ---------------------------------------------------
  free energy    TOTEN  =      -531.06269305 eV

  energy without entropy =     -531.06269305  energy(sigma->0) =     -531.06269305


--------------------------------------------------------------------------------------------------------




--------------------------------------- Iteration      1(  14)  ---------------------------------------


    POTLOK:  cpu time    1.9321: real time    1.9426
    SETDIJ:  cpu time    0.2310: real time    0.2318
    TRIAL :  cpu time   19.9585: real time   20.1266
    CORREC:  cpu time    9.2216: real time    9.2857
    CHARGE:  cpu time    2.9903: real time    3.0108
    --------------------------------------------
      LOOP:  cpu time   34.3577: real time   34.6472

 eigenvalue-minimisations  :     0
 total energy-change (2. order) :-0.3122047E-02  (-0.8385503E-03)
 number of electron     216.0000000 magnetization 
 augmentation part       -0.5047559 magnetization 

 Free energy of the ion-electron system (eV)
  ---------------------------------------------------
  alpha Z        PSCENC =        47.94900195
  Ewald energy   TEWEN  =     40970.05347293
  -Hartree energ DENC   =    -47938.01217357
  -exchange      EXHF   =         0.00000000
  -V(xc)+E(xc)   XCENC  =       647.53528366
  PAW double counting   =    147153.19363719  -147012.93677919
  entropy T*S    EENTRO =        -0.00000000
  eigenvalues    EBANDS =     -2768.37184717
  atomic energy  EATOM  =      8369.52358910
  ---------------------------------------------------
  free energy    TOTEN  =      -531.06581509 eV

  energy without entropy =     -531.06581509  energy(sigma->0) =     -531.06581509


--------------------------------------------------------------------------------------------------------




--------------------------------------- Iteration      1(  15)  ---------------------------------------


    POTLOK:  cpu time    1.9554: real time    1.9718
    SETDIJ:  cpu time    0.2045: real time    0.2056
    TRIAL :  cpu time   19.9631: real time   20.1241
    CORREC:  cpu time    9.2292: real time    9.2904
    CHARGE:  cpu time    2.9775: real time    3.0019
    --------------------------------------------
      LOOP:  cpu time   34.3923: real time   34.6582

 eigenvalue-minimisations  :     0
 total energy-change (2. order) :-0.8386901E-03  (-0.2386554E-03)
 number of electron     216.0000000 magnetization 
 augmentation part       -0.5049157 magnetization 

 Free energy of the ion-electron system (eV)
  ---------------------------------------------------
  alpha Z        PSCENC =        47.94900195
  Ewald energy   TEWEN  =     40970.05347293
  -Hartree energ DENC   =    -47937.90737682
  -exchange      EXHF   =         0.00000000
  -V(xc)+E(xc)   XCENC  =       647.53615433
  PAW double counting   =    147049.15699627  -146908.90279084
  entropy T*S    EENTRO =        -0.00000000
  eigenvalues    EBANDS =     -2768.47570070
  atomic energy  EATOM  =      8369.52358910
  ---------------------------------------------------
  free energy    TOTEN  =      -531.06665378 eV

  energy without entropy =     -531.06665378  energy(sigma->0) =     -531.06665378


--------------------------------------------------------------------------------------------------------




--------------------------------------- Iteration      1(  16)  ---------------------------------------


    POTLOK:  cpu time    1.9322: real time    1.9427
    SETDIJ:  cpu time    0.2360: real time    0.2370
    TRIAL :  cpu time   19.9620: real time   20.1201
    CORREC:  cpu time    9.2281: real time    9.2926
    CHARGE:  cpu time    2.9857: real time    3.0098
    --------------------------------------------
      LOOP:  cpu time   34.3739: real time   34.6424

 eigenvalue-minimisations  :     0
 total energy-change (2. order) :-0.2389069E-03  (-0.8852964E-04)
 number of electron     216.0000000 magnetization 
 augmentation part       -0.5049654 magnetization 

 Free energy of the ion-electron system (eV)
  ---------------------------------------------------
  alpha Z        PSCENC =        47.94900195
  Ewald energy   TEWEN  =     40970.05347293
  -Hartree energ DENC   =    -47937.81589723
  -exchange      EXHF   =         0.00000000
  -V(xc)+E(xc)   XCENC  =       647.53487914
  PAW double counting   =    146987.38427341  -146847.13061958
  entropy T*S    EENTRO =        -0.00000000
  eigenvalues    EBANDS =     -2768.56559241
  atomic energy  EATOM  =      8369.52358910
  ---------------------------------------------------
  free energy    TOTEN  =      -531.06689269 eV

  energy without entropy =     -531.06689269  energy(sigma->0) =     -531.06689269


--------------------------------------------------------------------------------------------------------




--------------------------------------- Iteration      1(  17)  ---------------------------------------


    POTLOK:  cpu time    1.9280: real time    1.9383
    SETDIJ:  cpu time    0.2345: real time    0.2353
    TRIAL :  cpu time   19.9766: real time   20.1305
    CORREC:  cpu time    9.2254: real time    9.2895
    CHARGE:  cpu time    2.9838: real time    3.0050
    --------------------------------------------
      LOOP:  cpu time   34.3939: real time   34.6451

 eigenvalue-minimisations  :     0
 total energy-change (2. order) :-0.8725349E-04  (-0.3985952E-04)
 number of electron     216.0000000 magnetization 
 augmentation part       -0.5049881 magnetization 

 Free energy of the ion-electron system (eV)
  ---------------------------------------------------
  alpha Z        PSCENC =        47.94900195
  Ewald energy   TEWEN  =     40970.05347293
  -Hartree energ DENC   =    -47937.96032926
  -exchange      EXHF   =         0.00000000
  -V(xc)+E(xc)   XCENC  =       647.54281391
  PAW double counting   =    146941.25138769  -146800.99848977
  entropy T*S    EENTRO =        -0.00000000
  eigenvalues    EBANDS =     -2768.42842648
  atomic energy  EATOM  =      8369.52358910
  ---------------------------------------------------
  free energy    TOTEN  =      -531.06697994 eV

  energy without entropy =     -531.06697994  energy(sigma->0) =     -531.06697994


--------------------------------------------------------------------------------------------------------




--------------------------------------- Iteration      1(  18)  ---------------------------------------


    POTLOK:  cpu time    1.9338: real time    1.9439
    SETDIJ:  cpu time    0.2333: real time    0.2341
    TRIAL :  cpu time   19.9886: real time   20.1372
    CORREC:  cpu time    9.2469: real time    9.3080
    CHARGE:  cpu time    2.9856: real time    3.0060
    --------------------------------------------
      LOOP:  cpu time   34.4678: real time   34.7106

 eigenvalue-minimisations  :     0
 total energy-change (2. order) :-0.3800145E-04  (-0.1699754E-04)
 number of electron     216.0000000 magnetization 
 augmentation part       -0.5050307 magnetization 

 Free energy of the ion-electron system (eV)
  ---------------------------------------------------
  alpha Z        PSCENC =        47.94900195
  Ewald energy   TEWEN  =     40970.05347293
  -Hartree energ DENC   =    -47938.04939834
  -exchange      EXHF   =         0.00000000
  -V(xc)+E(xc)   XCENC  =       647.54687531
  PAW double counting   =    146924.14696169  -146783.89389734
  entropy T*S    EENTRO =        -0.00000000
  eigenvalues    EBANDS =     -2768.34362325
  atomic energy  EATOM  =      8369.52358910
  ---------------------------------------------------
  free energy    TOTEN  =      -531.06701795 eV

  energy without entropy =     -531.06701795  energy(sigma->0) =     -531.06701795


--------------------------------------------------------------------------------------------------------




--------------------------------------- Iteration      1(  19)  ---------------------------------------


    POTLOK:  cpu time    1.9332: real time    1.9438
    SETDIJ:  cpu time    0.2322: real time    0.2330
    TRIAL :  cpu time   19.9775: real time   20.1268
    CORREC:  cpu time    9.2300: real time    9.2926
    CHARGE:  cpu time    2.9779: real time    3.0008
    --------------------------------------------
      LOOP:  cpu time   34.4314: real time   34.6822

 eigenvalue-minimisations  :     0
 total energy-change (2. order) :-0.1653613E-04  (-0.7160283E-05)
 number of electron     216.0000000 magnetization 
 augmentation part       -0.5050356 magnetization 

 Free energy of the ion-electron system (eV)
  ---------------------------------------------------
  alpha Z        PSCENC =        47.94900195
  Ewald energy   TEWEN  =     40970.05347293
  -Hartree energ DENC   =    -47938.04762873
  -exchange      EXHF   =         0.00000000
  -V(xc)+E(xc)   XCENC  =       647.54582068
  PAW double counting   =    146932.13718043  -146791.88334115
  entropy T*S    EENTRO =        -0.00000000
  eigenvalues    EBANDS =     -2768.34512969
  atomic energy  EATOM  =      8369.52358910
  ---------------------------------------------------
  free energy    TOTEN  =      -531.06703448 eV

  energy without entropy =     -531.06703448  energy(sigma->0) =     -531.06703448


--------------------------------------------------------------------------------------------------------




--------------------------------------- Iteration      1(  20)  ---------------------------------------


    POTLOK:  cpu time    1.9333: real time    1.9438
    SETDIJ:  cpu time    0.2301: real time    0.2308
    TRIAL :  cpu time   19.9482: real time   20.1288
    CORREC:  cpu time    9.2123: real time    9.2761
    CHARGE:  cpu time    2.9809: real time    3.0032
    --------------------------------------------
      LOOP:  cpu time   34.3656: real time   34.6446

 eigenvalue-minimisations  :     0
 total energy-change (2. order) :-0.6702438E-05  (-0.1703431E-05)
 number of electron     216.0000000 magnetization 
 augmentation part       -0.5050359 magnetization 

 Free energy of the ion-electron system (eV)
  ---------------------------------------------------
  alpha Z        PSCENC =        47.94900195
  Ewald energy   TEWEN  =     40970.05347293
  -Hartree energ DENC   =    -47938.08120224
  -exchange      EXHF   =         0.00000000
  -V(xc)+E(xc)   XCENC  =       647.54690853
  PAW double counting   =    146946.15959182  -146805.90562879
  entropy T*S    EENTRO =        -0.00000000
  eigenvalues    EBANDS =     -2768.31277448
  atomic energy  EATOM  =      8369.52358910
  ---------------------------------------------------
  free energy    TOTEN  =      -531.06704118 eV

  energy without entropy =     -531.06704118  energy(sigma->0) =     -531.06704118


--------------------------------------------------------------------------------------------------------




--------------------------------------- Iteration      1(  21)  ---------------------------------------


    POTLOK:  cpu time    1.9288: real time    1.9412
    SETDIJ:  cpu time    0.2458: real time    0.2467
    TRIAL :  cpu time   19.9610: real time   20.1158
    CORREC:  cpu time    9.2221: real time    9.2852
    CHARGE:  cpu time    2.9816: real time    3.0055
    --------------------------------------------
      LOOP:  cpu time   34.3660: real time   34.6438

 eigenvalue-minimisations  :     0
 total energy-change (2. order) :-0.1708657E-05  (-0.6306766E-06)
 number of electron     216.0000000 magnetization 
 augmentation part       -0.5050279 magnetization 

 Free energy of the ion-electron system (eV)
  ---------------------------------------------------
  alpha Z        PSCENC =        47.94900195
  Ewald energy   TEWEN  =     40970.05347293
  -Hartree energ DENC   =    -47938.07413224
  -exchange      EXHF   =         0.00000000
  -V(xc)+E(xc)   XCENC  =       647.54614802
  PAW double counting   =    146951.45752665  -146811.20349409
  entropy T*S    EENTRO =        -0.00000000
  eigenvalues    EBANDS =     -2768.31915522
  atomic energy  EATOM  =      8369.52358910
  ---------------------------------------------------
  free energy    TOTEN  =      -531.06704289 eV

  energy without entropy =     -531.06704289  energy(sigma->0) =     -531.06704289


--------------------------------------------------------------------------------------------------------




--------------------------------------- Iteration      1(  22)  ---------------------------------------


    POTLOK:  cpu time    1.9304: real time    1.9422
    SETDIJ:  cpu time    0.2323: real time    0.2331
    TRIAL :  cpu time   19.9655: real time   20.1152
    CORREC:  cpu time    9.2212: real time    9.2870
    CHARGE:  cpu time    2.9810: real time    3.0026
    --------------------------------------------
      LOOP:  cpu time   34.3619: real time   34.6254

 eigenvalue-minimisations  :     0
 total energy-change (2. order) :-0.5771581E-06  (-0.2468736E-06)
 number of electron     216.0000000 magnetization 
 augmentation part       -0.5050194 magnetization 

 Free energy of the ion-electron system (eV)
  ---------------------------------------------------
  alpha Z        PSCENC =        47.94900195
  Ewald energy   TEWEN  =     40970.05347293
  -Hartree energ DENC   =    -47938.06825007
  -exchange      EXHF   =         0.00000000
  -V(xc)+E(xc)   XCENC  =       647.54581190
  PAW double counting   =    146952.77875029  -146812.52476744
  entropy T*S    EENTRO =        -0.00000000
  eigenvalues    EBANDS =     -2768.32465214
  atomic energy  EATOM  =      8369.52358910
  ---------------------------------------------------
  free energy    TOTEN  =      -531.06704347 eV

  energy without entropy =     -531.06704347  energy(sigma->0) =     -531.06704347


--------------------------------------------------------------------------------------------------------




--------------------------------------- Iteration      1(  23)  ---------------------------------------


    POTLOK:  cpu time    1.9328: real time    1.9430
    SETDIJ:  cpu time    0.2303: real time    0.2311
    TRIAL :  cpu time   19.9682: real time   20.1154
    CORREC:  cpu time    9.2133: real time    9.2826
    CHARGE:  cpu time    2.9819: real time    3.0034
    --------------------------------------------
      LOOP:  cpu time   34.3492: real time   34.6027

 eigenvalue-minimisations  :     0
 total energy-change (2. order) :-0.1970911E-06  (-0.8320405E-07)
 number of electron     216.0000000 magnetization 
 augmentation part       -0.5050172 magnetization 

 Free energy of the ion-electron system (eV)
  ---------------------------------------------------
  alpha Z        PSCENC =        47.94900195
  Ewald energy   TEWEN  =     40970.05347293
  -Hartree energ DENC   =    -47938.06553385
  -exchange      EXHF   =         0.00000000
  -V(xc)+E(xc)   XCENC  =       647.54574494
  PAW double counting   =    146953.06631472  -146812.81240610
  entropy T*S    EENTRO =        -0.00000000
  eigenvalues    EBANDS =     -2768.32722735
  atomic energy  EATOM  =      8369.52358910
  ---------------------------------------------------
  free energy    TOTEN  =      -531.06704367 eV

  energy without entropy =     -531.06704367  energy(sigma->0) =     -531.06704367


--------------------------------------------------------------------------------------------------------




--------------------------------------- Iteration      1(  24)  ---------------------------------------


    POTLOK:  cpu time    1.9320: real time    1.9421
    SETDIJ:  cpu time    0.2410: real time    0.2419
    TRIAL :  cpu time   19.9812: real time   20.1321
    CORREC:  cpu time    9.2181: real time    9.2783
    EDDIAG:  cpu time    4.1562: real time    4.1872
    CHARGE:  cpu time    2.9818: real time    3.0042
    --------------------------------------------
      LOOP:  cpu time   38.5761: real time   38.8576

 eigenvalue-minimisations  :     0
 total energy-change (2. order) :-0.5203765E-07  (-0.3692164E-07)
 number of electron     216.0000000 magnetization 
 augmentation part       -0.5050157 magnetization 

 Free energy of the ion-electron system (eV)
  ---------------------------------------------------
  alpha Z        PSCENC =        47.94900195
  Ewald energy   TEWEN  =     40970.05347293
  -Hartree energ DENC   =    -47938.06373811
  -exchange      EXHF   =         0.00000000
  -V(xc)+E(xc)   XCENC  =       647.54569134
  PAW double counting   =    146953.08517103  -146812.83128343
  entropy T*S    EENTRO =        -0.00000000
  eigenvalues    EBANDS =     -2768.32894852
  atomic energy  EATOM  =      8369.52358910
  ---------------------------------------------------
  free energy    TOTEN  =      -531.06704372 eV

  energy without entropy =     -531.06704372  energy(sigma->0) =     -531.06704372


--------------------------------------------------------------------------------------------------------


  average scaling for gradient   1.0109


 average (electrostatic) potential at core
  the test charge radii are     0.5770  0.5955
  (the norm of the test charge is              1.0000)
       1 -88.0706       2 -88.0693       3 -88.0705       4 -88.0699       5 -88.0667
       6 -88.0654       7 -88.0690       8 -88.0656       9 -88.0668      10 -88.0675
      11 -88.0643      12 -88.0654      13 -88.0667      14 -88.0632      15 -88.0640
      16 -88.0667      17 -88.0672      18 -88.0693      19 -88.0672      20 -88.0663
      21 -88.0663      22 -88.0627      23 -88.0680      24 -88.0665      25 -88.0664
      26 -88.0655      27 -88.0632      28 -88.0675      29 -88.0669      30 -88.0630
      31 -88.0650      32 -88.0662      33 -88.0668      34 -88.0672      35 -88.0631
      36 -88.0666      37 -88.0637      38 -88.0678      39 -88.0674      40 -88.0694
      41 -88.0703      42 -88.0708      43 -88.0687      44 -88.0694      45 -88.0662
      46 -88.0655      47 -88.0663      48 -88.0656      49 -88.0691      50 -88.0693
      51 -92.1543      52-124.2809      53-124.2826
 
 
 
 E-fermi :  -4.4128     XC(G=0):  -1.8901     alpha+bet : -1.6890

 Fermi energy:        -4.4127798700

 k-point     1 :       0.0000    0.0000    0.0000
  band No.  band energies     occupation 
      1     -29.2151      2.00000
      2     -28.1885      2.00000
      3     -23.5753      2.00000
      4     -22.5899      2.00000
      5     -22.5889      2.00000
      6     -22.5885      2.00000
      7     -22.5883      2.00000
      8     -22.5880      2.00000
      9     -22.5872      2.00000
     10     -20.6573      2.00000
     11     -20.6572      2.00000
     12     -20.6569      2.00000
     13     -20.6562      2.00000
     14     -20.6557      2.00000
     15     -20.6555      2.00000
     16     -19.7218      2.00000
     17     -19.7216      2.00000
     18     -19.7211      2.00000
     19     -19.7210      2.00000
     20     -19.7201      2.00000
     21     -19.7198      2.00000
     22     -17.5011      2.00000
     23     -17.5006      2.00000
     24     -17.5003      2.00000
     25     -17.4999      2.00000
     26     -17.4990      2.00000
     27     -17.4989      2.00000
     28     -16.3418      2.00000
     29     -16.3417      2.00000
     30     -16.3406      2.00000
     31     -16.3404      2.00000
     32     -16.3400      2.00000
     33     -16.3398      2.00000
     34     -14.9491      2.00000
     35     -14.9489      2.00000
     36     -14.9482      2.00000
     37     -14.9480      2.00000
     38     -14.9478      2.00000
     39     -14.9475      2.00000
     40     -13.1678      2.00000
     41     -12.4907      2.00000
     42     -12.4905      2.00000
     43     -12.4900      2.00000
     44     -12.4899      2.00000
     45     -12.4887      2.00000
     46     -12.4884      2.00000
     47     -12.2720      2.00000
     48     -12.2719      2.00000
     49     -12.2709      2.00000
     50     -12.2706      2.00000
     51     -12.2702      2.00000
     52     -12.2701      2.00000
     53     -11.8903      2.00000
     54     -11.6347      2.00000
     55     -11.6332      2.00000
     56     -10.9361      2.00000
     57     -10.8261      2.00000
     58     -10.8259      2.00000
     59     -10.8243      2.00000
     60     -10.8239      2.00000
     61     -10.8238      2.00000
     62     -10.8236      2.00000
     63      -9.7632      2.00000
     64      -9.7623      2.00000
     65      -9.7620      2.00000
     66      -9.7619      2.00000
     67      -9.7617      2.00000
     68      -9.7612      2.00000
     69      -9.5258      2.00000
     70      -9.5255      2.00000
     71      -9.5253      2.00000
     72      -9.5245      2.00000
     73      -9.5242      2.00000
     74      -9.5239      2.00000
     75      -9.5235      2.00000
     76      -9.5225      2.00000
     77      -9.5222      2.00000
     78      -9.5219      2.00000
     79      -9.5217      2.00000
     80      -9.5211      2.00000
     81      -8.0397      2.00000
     82      -8.0371      2.00000
     83      -7.8194      2.00000
     84      -7.8179      2.00000
     85      -7.8175      2.00000
     86      -7.8170      2.00000
     87      -7.8150      2.00000
     88      -7.8143      2.00000
     89      -7.5213      2.00000
     90      -7.5211      2.00000
     91      -7.5209      2.00000
     92      -7.5205      2.00000
     93      -7.5200      2.00000
     94      -7.5198      2.00000
     95      -6.5767      2.00000
     96      -6.5766      2.00000
     97      -6.5763      2.00000
     98      -6.5761      2.00000
     99      -6.5754      2.00000
    100      -6.5751      2.00000
    101      -6.3018      2.00000
    102      -6.2995      2.00000
    103      -4.4795      2.00000
    104      -4.4791      2.00000
    105      -4.4784      2.00000
    106      -4.4783      2.00000
    107      -4.4779      2.00000
    108      -4.4778      2.00000
    109      -1.5032      0.00000
    110      -1.5031      0.00000
    111      -1.5029      0.00000
    112      -1.5027      0.00000
    113      -1.5019      0.00000
    114      -1.5016      0.00000
    115       0.4765      0.00000
    116       0.4768      0.00000
    117       0.4771      0.00000
    118       0.4775      0.00000
    119       0.4777      0.00000
    120       0.4791      0.00000
    121       0.6739      0.00000
    122       0.9324      0.00000
    123       1.2408      0.00000
    124       1.2421      0.00000
    125       1.4249      0.00000
    126       1.7858      0.00000
    127       1.9801      0.00000
    128       1.9849      0.00000
    129       1.9858      0.00000
    130       1.9883      0.00000
    131       1.9898      0.00000
    132       1.9903      0.00000
    133       2.2569      0.00000
    134       2.3026      0.00000
    135       2.3542      0.00000
    136       2.3544      0.00000
    137       2.3547      0.00000
    138       2.3551      0.00000
    139       2.3553      0.00000
    140       2.3558      0.00000
    141       2.5851      0.00000
    142       2.6958      0.00000
    143       2.7098      0.00000
    144       2.7157      0.00000
    145       2.7222      0.00000
    146       2.7290      0.00000
    147       2.7317      0.00000
    148       2.7741      0.00000
    149       2.7977      0.00000
    150       2.8130      0.00000
    151       2.8325      0.00000
    152       3.1556      0.00000
    153       3.4288      0.00000
    154       3.6502      0.00000
    155       4.0873      0.00000
    156       4.1086      0.00000
    157       4.2929      0.00000
    158       4.2966      0.00000
    159       4.3140      0.00000
    160       4.4577      0.00000
    161       4.6015      0.00000
    162       4.6381      0.00000
    163       4.9216      0.00000
    164       4.9309      0.00000
    165       4.9568      0.00000
    166       4.9609      0.00000
    167       4.9614      0.00000
    168       4.9627      0.00000


--------------------------------------------------------------------------------------------------------


 soft charge-density along one line, spin component           1
         0         1         2         3         4         5         6         7         8         9
 total charge-density along one line
 
 pseudopotential strength for first ion, spin component:           1
 12.643  21.273  -0.000   0.000   0.000  -0.000   0.000   0.000
 21.273  35.792  -0.000   0.000   0.000  -0.000   0.000   0.000
 -0.000  -0.000  -3.239   0.000   0.000  -5.803   0.000   0.000
  0.000   0.000   0.000  -3.243   0.000   0.000  -5.810   0.000
  0.000   0.000   0.000   0.000  -3.239   0.000   0.000  -5.804
 -0.000  -0.000  -5.803   0.000   0.000 -10.375   0.000   0.000
  0.000   0.000   0.000  -5.810   0.000   0.000 -10.385   0.000
  0.000   0.000   0.000   0.000  -5.804   0.000   0.000 -10.375
 total augmentation occupancy for first ion, spin component:           1
  9.643  -3.599   0.000  -0.002  -0.001  -0.000   0.001   0.000
 -3.599   1.374  -0.000   0.001   0.001   0.000  -0.000  -0.000
  0.000  -0.000   8.197  -0.009   0.001  -2.896   0.003  -0.000
 -0.002   0.001  -0.009   3.784  -0.000   0.003  -1.107   0.000
 -0.001   0.001   0.001  -0.000   8.196  -0.000   0.000  -2.895
 -0.000   0.000  -2.896   0.003  -0.000   1.036  -0.001   0.000
  0.001  -0.000   0.003  -1.107   0.000  -0.001   0.329  -0.000
  0.000  -0.000  -0.000   0.000  -2.895   0.000  -0.000   1.035


------------------------ aborting loop because EDIFF is reached ----------------------------------------


    FORLOC:  cpu time    0.1359: real time    0.1371
    FORNL :  cpu time    3.7887: real time    3.8214
    FORCOR:  cpu time    1.9130: real time    1.9230
    OFIELD:  cpu time    0.0029: real time    0.0029

 VOLUME and BASIS-vectors are now :
 -----------------------------------------------------------------------------
  energy-cutoff  :     1000.00
  volume of cell :     3288.85
      direct lattice vectors                 reciprocal lattice vectors
    12.325000000  0.000000000  0.000000000     0.081135903  0.046843835  0.000000000
    -6.162500000 10.673763102  0.000000000     0.000000000  0.093687670  0.000000000
     0.000000000  0.000000000 25.000000000     0.000000000  0.000000000  0.040000000

  length of vectors
    12.325000000 12.325000000 25.000000000     0.093687670  0.093687670  0.040000000


 FORCES acting on ions:
    Electron-Ion                     Ewald-Force                    Non-Local-Force
 -----------------------------------------------------------------------------------------------
   0.472E+00 0.417E+00 0.119E+02   -.467E+00 -.423E+00 -.119E+02   -.423E-02 0.617E-02 0.813E-02
   0.639E+00 0.370E+00 0.128E+02   -.639E+00 -.378E+00 -.128E+02   -.421E-02 0.127E-01 -.494E-02
   0.244E+00 0.686E+00 0.127E+02   -.253E+00 -.691E+00 -.127E+02   0.965E-02 0.181E-01 -.105E-02
   0.310E+00 0.457E+00 0.147E+02   -.313E+00 -.468E+00 -.147E+02   0.200E-01 0.165E-01 -.177E-01
   0.552E+00 0.142E+00 0.124E+02   -.541E+00 -.153E+00 -.124E+02   -.124E-01 0.905E-02 0.502E-02
   0.557E+00 -.136E+00 0.126E+02   -.558E+00 0.129E+00 -.126E+02   -.112E-01 0.147E-01 -.350E-02
   0.592E+00 0.290E+00 0.148E+02   -.593E+00 -.303E+00 -.148E+02   0.122E-01 0.297E-03 -.689E-02
   0.630E+00 -.189E+00 0.160E+02   -.635E+00 0.179E+00 -.160E+02   -.714E-02 0.121E-01 -.378E-02
   -.302E+00 0.710E+00 0.131E+02   0.293E+00 -.716E+00 -.131E+02   0.180E-01 -.901E-02 -.506E-02
   -.348E+00 0.307E+00 0.151E+02   0.340E+00 -.314E+00 -.151E+02   -.118E-01 0.235E-01 0.229E-02
   0.146E+00 -.141E+00 0.118E+02   -.141E+00 0.143E+00 -.118E+02   0.223E-02 -.426E-02 -.512E-03
   0.146E+00 -.116E+00 0.116E+02   -.153E+00 0.123E+00 -.116E+02   0.103E-02 -.618E-02 0.634E-02
   0.123E+00 -.477E+00 0.168E+02   -.126E+00 0.473E+00 -.168E+02   0.296E-01 0.308E-02 0.164E-03
   0.893E-01 -.778E+00 0.143E+02   -.911E-01 0.779E+00 -.143E+02   0.834E-03 0.780E-02 -.160E-01
   -.519E+00 0.305E+00 0.120E+02   0.522E+00 -.309E+00 -.120E+02   0.685E-02 -.140E-02 0.816E-02
   -.635E+00 0.157E+00 0.121E+02   0.635E+00 -.158E+00 -.121E+02   -.192E-02 0.657E-02 -.987E-02
   -.894E-01 -.276E-01 0.112E+02   0.887E-01 0.380E-01 -.112E+02   0.596E-02 -.165E-01 0.280E-02
   0.393E-01 0.318E+00 0.113E+02   -.459E-01 -.311E+00 -.113E+02   0.657E-02 -.109E-01 0.115E-01
   -.139E+00 -.716E+00 0.130E+02   0.144E+00 0.724E+00 -.130E+02   -.225E-02 -.101E-01 -.325E-02
   -.777E-01 -.447E+00 0.119E+02   0.857E-01 0.454E+00 -.119E+02   -.155E-01 -.911E-02 0.643E-03
   0.704E+00 -.291E+00 0.138E+02   -.701E+00 0.285E+00 -.137E+02   -.471E-02 0.841E-02 -.202E-01
   0.514E+00 -.409E+00 0.130E+02   -.518E+00 0.409E+00 -.130E+02   -.454E-02 0.688E-02 0.113E-02
   -.119E+00 0.170E+00 0.165E+02   0.105E+00 -.178E+00 -.165E+02   0.162E-02 0.251E-01 0.151E-02
   -.182E+00 -.295E+00 0.165E+02   0.181E+00 0.285E+00 -.165E+02   0.182E-01 -.443E-02 -.119E-01
   0.268E+00 -.933E-01 0.119E+02   -.271E+00 0.977E-01 -.119E+02   0.110E-01 -.103E-01 -.553E-02
   0.816E-01 0.232E+00 0.117E+02   -.925E-01 -.225E+00 -.117E+02   0.994E-02 -.465E-02 0.826E-02
   -.757E+00 0.354E-01 0.135E+02   0.755E+00 -.408E-01 -.135E+02   0.201E-01 0.119E-01 -.872E-03
   -.667E+00 -.295E+00 0.129E+02   0.669E+00 0.295E+00 -.129E+02   -.789E-02 0.769E-02 -.563E-02
   0.262E+00 -.577E+00 0.131E+02   -.261E+00 0.578E+00 -.131E+02   0.391E-02 0.163E-02 -.114E-01
   0.306E-01 -.249E+00 0.121E+02   -.319E-01 0.253E+00 -.121E+02   -.587E-02 -.793E-03 0.424E-03
   -.480E+00 -.458E+00 0.138E+02   0.477E+00 0.461E+00 -.138E+02   -.114E-01 -.982E-02 -.181E-01
   -.354E+00 -.691E+00 0.127E+02   0.362E+00 0.697E+00 -.127E+02   -.692E-02 -.119E-01 -.753E-03
   0.316E-01 0.162E+00 0.115E+02   -.191E-01 -.167E+00 -.115E+02   -.124E-01 0.205E-03 0.941E-02
   0.944E-01 0.127E+00 0.116E+02   -.896E-01 -.132E+00 -.116E+02   -.145E-01 0.130E-01 -.178E-02
   -.331E+00 0.630E-01 0.117E+02   0.340E+00 -.672E-01 -.118E+02   -.350E-02 0.194E-02 0.953E-02
   -.292E+00 -.145E+00 0.117E+02   0.291E+00 0.146E+00 -.117E+02   -.419E-02 0.140E-02 0.283E-03
   -.542E+00 -.304E+00 0.118E+02   0.545E+00 0.309E+00 -.118E+02   -.215E-03 -.873E-02 0.519E-02
   -.365E+00 -.290E+00 0.115E+02   0.366E+00 0.300E+00 -.115E+02   -.298E-02 -.133E-01 0.860E-02
   -.338E+00 -.411E+00 0.117E+02   0.340E+00 0.425E+00 -.117E+02   -.789E-02 -.167E-01 0.528E-02
   -.426E-01 -.119E+00 0.114E+02   0.496E-01 0.126E+00 -.114E+02   -.622E-02 -.118E-01 0.913E-02
   0.133E+00 0.329E+00 0.113E+02   -.134E+00 -.322E+00 -.113E+02   -.325E-02 -.813E-02 0.866E-02
   0.396E+00 0.577E+00 0.118E+02   -.395E+00 -.579E+00 -.118E+02   -.200E-03 -.401E-04 0.893E-02
   0.445E-01 0.527E+00 0.115E+02   -.513E-01 -.525E+00 -.115E+02   0.151E-01 -.659E-02 0.373E-02
   0.318E-02 0.742E+00 0.123E+02   -.140E-01 -.743E+00 -.124E+02   0.884E-02 0.180E-02 0.622E-02
   -.112E+00 0.189E+00 0.118E+02   0.108E+00 -.191E+00 -.118E+02   0.138E-01 -.432E-02 -.349E-03
   -.357E+00 0.473E+00 0.121E+02   0.349E+00 -.471E+00 -.121E+02   0.537E-02 -.115E-02 -.271E-02
   -.116E+00 -.238E+00 0.119E+02   0.124E+00 0.237E+00 -.119E+02   -.490E-02 -.284E-02 0.464E-02
   -.208E+00 0.732E-01 0.115E+02   0.215E+00 -.707E-01 -.115E+02   -.159E-01 0.218E-02 -.408E-02
   0.204E-01 -.134E+00 0.115E+02   -.111E-01 0.139E+00 -.115E+02   -.102E-01 -.105E-01 0.786E-02
   0.236E+00 0.166E+00 0.114E+02   -.227E+00 -.164E+00 -.114E+02   -.160E-01 0.211E-02 0.523E-02
   -.174E-02 0.215E-01 -.157E+03   -.336E-03 -.254E-01 0.158E+03   -.156E-01 0.165E-01 -.212E-02
   -.228E+03 0.155E+03 -.249E+03   0.279E+03 -.190E+03 0.252E+03   -.527E+02 0.359E+02 -.354E+01
   0.228E+03 -.155E+03 -.227E+03   -.279E+03 0.190E+03 0.224E+03   0.527E+02 -.359E+02 0.319E+01
 -----------------------------------------------------------------------------------------------
   -.211E-01 0.359E-02 0.376E+00   0.114E-12 -.853E-13 0.284E-13   0.410E-02 0.273E-01 -.360E+00
 
 
 POSITION                                       TOTAL-FORCE (eV/Angst)
 -----------------------------------------------------------------------------------
     11.98348      0.00342      0.01417        -0.006433      0.005871     -0.000728
     -0.34154      1.42665      0.01100        -0.013359      0.018345     -0.002785
      2.12355      0.00315      0.01249         0.009843      0.018016     -0.006525
      2.12326      1.42653      0.00641         0.028644      0.019473     -0.007548
     10.75099      2.13819      0.01213        -0.007295      0.016199      0.000091
     -1.57382      3.56123      0.01110        -0.026365      0.013732     -0.002496
      0.89078      2.13854      0.00548         0.010633      0.010625      0.003396
      0.89099      3.56147      0.00181        -0.010510      0.011336      0.013910
      4.58864      0.00346      0.01135         0.026159     -0.018479     -0.003158
      4.58894      1.42623      0.00646         0.003142      0.028735      0.014486
      9.51854      4.27281      0.01369         0.016452      0.000914     -0.001137
     -2.80632      5.69591      0.01434        -0.006114     -0.017083     -0.000340
      2.12300      4.27302      0.00000         0.024023      0.015918      0.023091
      2.12335      5.69594      0.00581         0.004301      0.004892     -0.001150
      7.05344      0.00333      0.01399         0.008734     -0.015566     -0.001653
      7.05353      1.42635      0.01368        -0.002884      0.014026     -0.006778
      8.28610      6.40752      0.01601         0.017760     -0.021075     -0.000763
     -4.03885      7.83070      0.01636         0.007293     -0.018709      0.000131
      3.35586      6.40753      0.01007        -0.014611     -0.011407     -0.003109
      3.35599      7.83072      0.01320        -0.017781     -0.008213      0.000066
     -0.34146      4.27290      0.00723         0.000597      0.019666     -0.005857
     -0.34138      5.69591      0.00946        -0.012701      0.003706      0.000295
      3.35624      2.13791      0.00222        -0.005645      0.033584      0.018043
      3.35573      3.56155      0.00139         0.033226     -0.008474      0.010134
     -1.57395      6.40758      0.01311         0.025383     -0.014836     -0.002379
     -1.57385      7.83068      0.01438         0.009751     -0.002809      0.000396
      5.82093      2.13784      0.01033         0.020424      0.007184     -0.001502
      5.82114      3.56097      0.01156         0.001022      0.002020     -0.007123
      0.89092      6.40755      0.00907         0.004487      0.000131     -0.004787
      0.89106      7.83068      0.01235        -0.007421      0.008680      0.001346
      4.58871      4.27293      0.00850        -0.024297     -0.003425     -0.012138
      4.58852      5.69606      0.01149         0.001458     -0.024471     -0.005387
      9.51845      0.00337      0.01490        -0.016896     -0.006297      0.000225
      9.51855      1.42644      0.01438        -0.030406      0.020232     -0.001091
      8.28593      2.13803      0.01453         0.002729     -0.000144      0.001427
      8.28613      3.56115      0.01464        -0.012784     -0.003951     -0.002783
      7.05356      4.27269      0.01457         0.003756     -0.008355     -0.000025
      7.05362      5.69588      0.01553        -0.001994     -0.028623     -0.001010
      5.82112      6.40755      0.01489        -0.015509     -0.018023     -0.000032
      5.82102      7.83073      0.01579        -0.004912     -0.019997      0.000138
      7.05363      8.54227      0.01631        -0.003338     -0.010957      0.001371
     -5.27149      9.96549      0.01495         0.001748     -0.001322     -0.002286
     -2.80638      8.54234      0.01558         0.028425     -0.014990     -0.000870
     -2.80627      9.96553      0.01362         0.016684      0.004105     -0.003679
     -0.34149      8.54239      0.01378         0.023184     -0.017277     -0.001774
     -0.34138      9.96550      0.01354         0.010882      0.010333     -0.002763
      2.12343      8.54232      0.01336        -0.012636     -0.014065     -0.001041
      2.12354      9.96544      0.01469        -0.023520      0.013556     -0.002932
      4.58846      8.54235      0.01505        -0.019471     -0.016444      0.001697
      4.58853      9.96550      0.01517        -0.024271      0.006907      0.000784
      3.04930      2.68154      8.90899        -0.033137      0.020606      0.041275
      4.02070      2.02068      8.97341        -1.659147      1.109350     -0.129891
      2.07767      3.34267      8.84953         1.672695     -1.113153      0.095219
 -----------------------------------------------------------------------------------
    total drift:                               -0.017046      0.030893      0.015201


--------------------------------------------------------------------------------------------------------



  FREE ENERGIE OF THE ION-ELECTRON SYSTEM (eV)
  ---------------------------------------------------
  free  energy   TOTEN  =      -531.06704372 eV

  energy  without entropy=     -531.06704372  energy(sigma->0) =     -531.06704372
 


--------------------------------------------------------------------------------------------------------


    POTLOK:  cpu time    2.1876: real time    2.1987


--------------------------------------------------------------------------------------------------------


 writing wavefunctions
     LOOP+:  cpu time  869.8871: real time  876.9738
    4ORBIT:  cpu time    0.0000: real time    0.0000

 total amount of memory used by VASP MPI-rank0   698619. kBytes
=======================================================================

   base      :      30000. kBytes
   nonl-proj :     230539. kBytes
   fftplans  :      40716. kBytes
   grid      :     363125. kBytes
   one-center:        162. kBytes
   wavefun   :      34077. kBytes
 
  
  
 General timing and accounting informations for this job:
 ========================================================
  
                  Total CPU time used (sec):      914.617
                            User time (sec):      887.675
                          System time (sec):       26.942
                         Elapsed time (sec):      923.098
  
                   Maximum memory used (kb):     1237748.
                   Average memory used (kb):          N/A
  
                          Minor page faults:       189468
                          Major page faults:           81
                 Voluntary context switches:         3721
