 vasp.6.2.1 16May21 (build Nov 06 2021 14:46:37) complex                        
  
 executed on             LinuxIFC date 2025.03.03  18:24:40
 running on  112 total cores
 distrk:  each k-point on   56 cores,    2 groups
 distr:  one band on NCORE=   1 cores,   56 groups


--------------------------------------------------------------------------------------------------------


 INCAR:
   ALGO = Conjugate
   KPAR = 2
   NCORE = 32
   ISMEAR = 0
   SIGMA = 0.01
   PREC = Accurate
   EDIFF = 1E-7
   ENCUT = 1000
   ISIF = 0
   METAGGA = SCAN
   LASPH = .TRUE.
   SYMPREC = 1E-7

 POTCAR:    PAW_PBE C_h 06Feb2004                 
 POTCAR:    PAW_PBE O_h 06Feb2004                 
 -----------------------------------------------------------------------------
|                                                                             |
|           W    W    AA    RRRRR   N    N  II  N    N   GGGG   !!!           |
|           W    W   A  A   R    R  NN   N  II  NN   N  G    G  !!!           |
|           W    W  A    A  R    R  N N  N  II  N N  N  G       !!!           |
|           W WW W  AAAAAA  RRRRR   N  N N  II  N  N N  G  GGG   !            |
|           WW  WW  A    A  R   R   N   NN  II  N   NN  G    G                |
|           W    W  A    A  R    R  N    N  II  N    N   GGGG   !!!           |
|                                                                             |
|     The value NCORE = 32 specified in the INCAR file was overwritten,       |
|     because it was not compatible with the 56 processes available:          |
|     NCORE = 1                                                               |
|     was used instead, please check that this makes sense for your           |
|     machine.                                                                |
|                                                                             |
 -----------------------------------------------------------------------------

 -----------------------------------------------------------------------------
|                                                                             |
|           W    W    AA    RRRRR   N    N  II  N    N   GGGG   !!!           |
|           W    W   A  A   R    R  NN   N  II  NN   N  G    G  !!!           |
|           W    W  A    A  R    R  N N  N  II  N N  N  G       !!!           |
|           W WW W  AAAAAA  RRRRR   N  N N  II  N  N N  G  GGG   !            |
|           WW  WW  A    A  R   R   N   NN  II  N   NN  G    G                |
|           W    W  A    A  R    R  N    N  II  N    N   GGGG   !!!           |
|                                                                             |
|     For optimal performance we recommend to set                             |
|       NCORE = 2 up to number-of-cores-per-socket                            |
|     NCORE specifies how many cores store one orbital (NPAR=cpu/NCORE).      |
|     This setting can greatly improve the performance of VASP for DFT.       |
|     The default, NCORE=1 might be grossly inefficient on modern             |
|     multi-core architectures or massively parallel machines. Do your        |
|     own testing! More info at https://www.vasp.at/wiki/index.php/NCORE      |
|     Unfortunately you need to use the default for GW and RPA                |
|     calculations (for HF NCORE is supported but not extensively tested      |
|     yet).                                                                   |
|                                                                             |
 -----------------------------------------------------------------------------

 POTCAR:    PAW_PBE C_h 06Feb2004                 
   VRHFIN =C: s2p2                                                                                  
   LEXCH  = PE                                                                                      
   EATOM  =   147.1560 eV,   10.8157 Ry                                                             
                                                                                                    
   TITEL  = PAW_PBE C_h 06Feb2004                                                                   
   LULTRA =        F    use ultrasoft PP ?                                                          
   IUNSCR =        1    unscreen: 0-lin 1-nonlin 2-no                                               
   RPACOR =    0.800    partial core radius                                                         
   POMASS =   12.011; ZVAL   =    4.000    mass and valenz                                          
   RCORE  =    1.100    outmost cutoff radius                                                       
   RWIGS  =    1.630; RWIGS  =    0.863    wigner-seitz radius (au A)                               
   ENMAX  =  700.000; ENMIN  =  500.000 eV                                                          
   ICORE  =        2    local potential                                                             
   LCOR   =        T    correct aug charges                                                         
   LPAW   =        T    paw PP                                                                      
   EAUG   =  946.768                                                                                
   DEXC   =    0.000                                                                                
   RMAX   =    1.128    core radius for proj-oper                                                   
   RAUG   =    1.300    factor for augmentation sphere                                              
   RDEP   =    1.162    radius for radial grids                                                     
   RDEPT  =    1.088    core radius for aug-charge                                                  
                                                                                                    
   Atomic configuration                                                                             
    4 entries                                                                                       
     n  l   j            E        occ.                                                              
     1  0  0.50      -273.3789   2.0000                                                             
     2  0  0.50       -13.7508   2.0000                                                             
     2  1  0.50        -5.2854   2.0000                                                             
     3  2  1.50        -5.4423   0.0000                                                             
   Description                                                                                      
     l       E           TYP  RCUT    TYP  RCUT                                                     
     0    -13.7508458     23  1.100                                                                 
     0     -8.2022199     23  1.100                                                                 
     1     -5.2854383     23  1.100                                                                 
     1      1.1560700     23  1.100                                                                 
     2     -5.4423304      7  1.100                                                                 
  local pseudopotential read in
  partial core-charges read in
  partial kinetic energy density read in
  atomic valenz-charges read in
  non local Contribution for L=           0  read in
    real space projection operators read in
  non local Contribution for L=           0  read in
    real space projection operators read in
  non local Contribution for L=           1  read in
    real space projection operators read in
  non local Contribution for L=           1  read in
    real space projection operators read in
    PAW grid and wavefunctions read in
 
   number of l-projection  operators is LMAX  =           4
   number of lm-projection operators is LMMAX =           8
 
 POTCAR:    PAW_PBE O_h 06Feb2004                 
   VRHFIN =O: s2p4                                                                                  
   LEXCH  = PE                                                                                      
   EATOM  =   432.3788 eV,   31.7789 Ry                                                             
                                                                                                    
   TITEL  = PAW_PBE O_h 06Feb2004                                                                   
   LULTRA =        F    use ultrasoft PP ?                                                          
   IUNSCR =        1    unscreen: 0-lin 1-nonlin 2-no                                               
   RPACOR =    0.800    partial core radius                                                         
   POMASS =   16.000; ZVAL   =    6.000    mass and valenz                                          
   RCORE  =    1.100    outmost cutoff radius                                                       
   RWIGS  =    1.400; RWIGS  =    0.741    wigner-seitz radius (au A)                               
   ENMAX  =  700.000; ENMIN  =  500.000 eV                                                          
   ICORE  =        2    local potential                                                             
   LCOR   =        T    correct aug charges                                                         
   LPAW   =        T    paw PP                                                                      
   EAUG   =  888.804                                                                                
   DEXC   =    0.000                                                                                
   RMAX   =    1.128    core radius for proj-oper                                                   
   RAUG   =    1.300    factor for augmentation sphere                                              
   RDEP   =    1.125    radius for radial grids                                                     
   RDEPT  =    1.088    core radius for aug-charge                                                  
                                                                                                    
   Atomic configuration                                                                             
    4 entries                                                                                       
     n  l   j            E        occ.                                                              
     1  0  0.50      -514.6923   2.0000                                                             
     2  0  0.50       -23.9615   2.0000                                                             
     2  1  0.50        -9.0305   4.0000                                                             
     3  2  1.50        -9.5241   0.0000                                                             
   Description                                                                                      
     l       E           TYP  RCUT    TYP  RCUT                                                     
     0    -23.9615319     23  1.100                                                                 
     0    -25.3221145     23  1.100                                                                 
     1     -9.0304911     23  1.100                                                                 
     1     -5.4802209     23  1.100                                                                 
     2     -9.5240782      7  1.100                                                                 
  local pseudopotential read in
  partial core-charges read in
  partial kinetic energy density read in
  atomic valenz-charges read in
  non local Contribution for L=           0  read in
    real space projection operators read in
  non local Contribution for L=           0  read in
    real space projection operators read in
  non local Contribution for L=           1  read in
    real space projection operators read in
  non local Contribution for L=           1  read in
    real space projection operators read in
    PAW grid and wavefunctions read in
 
   number of l-projection  operators is LMAX  =           4
   number of lm-projection operators is LMMAX =           8
 
 -----------------------------------------------------------------------------
|                                                                             |
|               ----> ADVICE to this user running VASP <----                  |
|                                                                             |
|     You have a (more or less) 'large supercell' and for larger cells it     |
|     might be more efficient to use real-space projection operators.         |
|     Therefore, try LREAL= Auto in the INCAR file.                           |
|     Mind: For very accurate calculation, you might also keep the            |
|     reciprocal projection scheme (i.e. LREAL=.FALSE.).                      |
|                                                                             |
 -----------------------------------------------------------------------------

  PAW_PBE C_h 06Feb2004                 :
 energy of atom  1       EATOM= -147.1560
 kinetic energy error for atom=    0.0031 (will be added to EATOM!!)
  PAW_PBE O_h 06Feb2004                 :
 energy of atom  2       EATOM= -432.3788
 kinetic energy error for atom=    0.0171 (will be added to EATOM!!)
 
 
 POSCAR:  C  O
  positions in cartesian coordinates
  No initial velocities read in

 METAGGA = SCAN     LMAXTAU =  6    LMIXTAU =  F

 exchange correlation table for  LEXCH =        8
   RHO(1)=    0.500       N(1)  =     2000
   RHO(2)=  100.500       N(2)  =     4000
 


--------------------------------------------------------------------------------------------------------


 ion  position               nearest neighbor table
   1  0.972  0.000  0.001-  50 1.42   2 1.42  42 1.42
   2  0.039  0.134  0.001-   5 1.42   7 1.42   1 1.42
   3  0.172  0.000  0.001-  42 1.42  44 1.42   4 1.42
   4  0.239  0.134  0.000-   7 1.42   3 1.42  23 1.42
   5  0.972  0.200  0.001-   6 1.42   2 1.42  34 1.42
   6  0.039  0.334  0.001-   5 1.42  21 1.42  11 1.42
   7  0.172  0.200  0.000-   8 1.42   2 1.42   4 1.42
   8  0.239  0.334  0.000-  13 1.42   7 1.42  21 1.42
   9  0.372  0.000  0.001-  10 1.42  44 1.42  46 1.42
  10  0.439  0.134  0.000-  27 1.42   9 1.42  23 1.42
  11  0.972  0.400  0.001-  12 1.42  36 1.42   6 1.42
  12  0.039  0.534  0.001-  25 1.42  11 1.42  17 1.42
  13  0.372  0.400  0.000-   8 1.42  14 1.42  24 1.42
  14  0.439  0.534  0.000-  13 1.42  29 1.42  19 1.42
  15  0.572  0.000  0.001-  46 1.42  16 1.42  48 1.42
  16  0.639  0.134  0.001-  15 1.42  35 1.42  27 1.42
  17  0.972  0.600  0.001-  38 1.42  18 1.42  12 1.42
  18  0.039  0.734  0.001-  43 1.42  41 1.42  17 1.42
  19  0.572  0.600  0.001-  14 1.42  20 1.42  32 1.42
  20  0.639  0.734  0.001-  49 1.42  19 1.42  47 1.42
  21  0.172  0.400  0.000-  22 1.42   8 1.42   6 1.42
  22  0.239  0.534  0.000-  21 1.42  29 1.42  25 1.42
  23  0.372  0.200  0.000-  10 1.42   4 1.42  24 1.42
  24  0.439  0.334  0.000-  13 1.42  31 1.42  23 1.42
  25  0.172  0.600  0.001-  26 1.42  12 1.42  22 1.42
  26  0.239  0.734  0.001-  25 1.42  45 1.42  43 1.42
  27  0.572  0.200  0.001-  10 1.42  28 1.42  16 1.42
  28  0.639  0.334  0.001-  27 1.42  37 1.42  31 1.42
  29  0.372  0.600  0.000-  22 1.42  14 1.42  30 1.42
  30  0.439  0.734  0.001-  47 1.42  29 1.42  45 1.42
  31  0.572  0.400  0.000-  32 1.42  28 1.42  24 1.42
  32  0.639  0.534  0.001-  31 1.42  39 1.42  19 1.42
  33  0.772  0.000  0.001-  34 1.42  48 1.42  50 1.42
  34  0.839  0.134  0.001-  33 1.42   5 1.42  35 1.42
  35  0.772  0.200  0.001-  36 1.42  16 1.42  34 1.42
  36  0.839  0.334  0.001-  35 1.42  11 1.42  37 1.42
  37  0.772  0.400  0.001-  28 1.42  38 1.42  36 1.42
  38  0.839  0.534  0.001-  17 1.42  37 1.42  39 1.42
  39  0.772  0.600  0.001-  40 1.42  38 1.42  32 1.42
  40  0.839  0.734  0.001-  39 1.42  49 1.42  41 1.42
  41  0.972  0.800  0.001-  18 1.42  42 1.42  40 1.42
  42  0.039  0.934  0.001-   3 1.42  41 1.42   1 1.42
  43  0.172  0.800  0.001-  18 1.42  44 1.42  26 1.42
  44  0.239  0.934  0.001-   9 1.42  43 1.42   3 1.42
  45  0.372  0.800  0.001-  26 1.42  46 1.42  30 1.42
  46  0.439  0.934  0.001-  15 1.42  45 1.42   9 1.42
  47  0.572  0.800  0.001-  30 1.42  48 1.42  20 1.42
  48  0.639  0.934  0.001-  47 1.42  33 1.42  15 1.42
  49  0.772  0.800  0.001-  50 1.42  20 1.42  40 1.42
  50  0.839  0.934  0.001-  49 1.42   1 1.42  33 1.42
  51  0.373  0.251  0.167-  52 1.18  53 1.18
  52  0.421  0.189  0.170-  51 1.18
  53  0.325  0.313  0.164-  51 1.18
 
  LATTYP: Found a hexagonal cell.
 ALAT       =    12.3250000000
 C/A-ratio  =     1.6227180527
  
  Lattice vectors:
  
 A1 = (  12.3250000000,   0.0000000000,   0.0000000000)
 A2 = (  -6.1625000000,  10.6737631016,   0.0000000000)
 A3 = (   0.0000000000,   0.0000000000,  20.0000000000)


Analysis of symmetry for initial positions (statically):
=====================================================================
 Subroutine PRICEL returns:
 Original cell was already a primitive cell.
 

 Routine SETGRP: Setting up the symmetry group for a 
 hexagonal supercell.


 Subroutine GETGRP returns: Found  1 space group operations
 (whereof  1 operations were pure point group operations)
 out of a pool of 24 trial point group operations.


The static configuration has the point symmetry C_1 .


Analysis of symmetry for dynamics (positions and initial velocities):
=====================================================================
 Subroutine PRICEL returns:
 Original cell was already a primitive cell.
 

 Routine SETGRP: Setting up the symmetry group for a 
 hexagonal supercell.


 Subroutine GETGRP returns: Found  1 space group operations
 (whereof  1 operations were pure point group operations)
 out of a pool of 24 trial point group operations.


The dynamic configuration has the point symmetry C_1 .


 Subroutine INISYM returns: Found  1 space group operations
 (whereof  1 operations are pure point group operations),
 and found     1 'primitive' translations


----------------------------------------------------------------------------------------

                                     Primitive cell                                     

  volume of cell :    2631.0826

  direct lattice vectors                    reciprocal lattice vectors
    12.325000000  0.000000000  0.000000000     0.081135903  0.046843835  0.000000000
    -6.162500000 10.673763102  0.000000000     0.000000000  0.093687670  0.000000000
     0.000000000  0.000000000 20.000000000     0.000000000  0.000000000  0.050000000

  length of vectors
    12.325000000 12.325000000 20.000000000     0.093687670  0.093687670  0.050000000

  position of ions in fractional coordinates (direct lattice)
     0.972450841  0.000320818  0.000708389
     0.039118382  0.133659505  0.000550216
     0.172443627  0.000295449  0.000624535
     0.239096278  0.133647917  0.000320585
     0.972452058  0.200322012  0.000606523
     0.039128360  0.333643771  0.000555187
     0.172451764  0.200354552  0.000273959
     0.239124359  0.333665720  0.000090325
     0.372465565  0.000324403  0.000567391
     0.439137473  0.133619939  0.000322923
     0.972449824  0.400309362  0.000684513
     0.039124981  0.533636789  0.000716763
     0.372416176  0.400329481  0.000000000
     0.439099602  0.533638981  0.000290518
     0.572443676  0.000312125  0.000699475
     0.639110207  0.133631751  0.000684093
     0.972452703  0.600305653  0.000800361
     0.039124495  0.733640359  0.000818141
     0.572433471  0.600306242  0.000503618
     0.639111888  0.733641879  0.000659881
     0.172454630  0.400318228  0.000361306
     0.239120185  0.533636548  0.000473136
     0.372459750  0.200295993  0.000111246
     0.439107096  0.333673419  0.000069702
     0.172452155  0.600311506  0.000655425
     0.239123371  0.733638574  0.000718912
     0.572431082  0.200289171  0.000516621
     0.639112773  0.333618630  0.000577970
     0.372439808  0.600308022  0.000453556
     0.439116090  0.733637858  0.000617737
     0.572469358  0.400320504  0.000424897
     0.639119408  0.533650873  0.000574513
     0.772445723  0.000315427  0.000745201
     0.839116277  0.133640203  0.000719132
     0.772440513  0.200307432  0.000726291
     0.839120241  0.333635728  0.000731834
     0.772446320  0.400298367  0.000728722
     0.839118980  0.533633964  0.000776376
     0.772456143  0.600308173  0.000744639
     0.839115033  0.733643180  0.000789390
     0.972455313  0.800305582  0.000815291
     0.039114714  0.933643289  0.000747563
     0.172457971  0.800312211  0.000779216
     0.239134551  0.933647193  0.000681063
     0.372451396  0.800316674  0.000689249
     0.439124489  0.933644769  0.000676788
     0.572441101  0.800310054  0.000668168
     0.639115067  0.933638985  0.000734556
     0.772445098  0.800313187  0.000752577
     0.839116614  0.933644338  0.000758538
     0.373021009  0.251226878  0.166854982
     0.420879805  0.189313152  0.170076075
     0.325156981  0.313167186  0.163882239

  ion indices of the primitive-cell ions
   primitive index   ion index
                 1           1
                 2           2
                 3           3
                 4           4
                 5           5
                 6           6
                 7           7
                 8           8
                 9           9
                10          10
                11          11
                12          12
                13          13
                14          14
                15          15
                16          16
                17          17
                18          18
                19          19
                20          20
                21          21
                22          22
                23          23
                24          24
                25          25
                26          26
                27          27
                28          28
                29          29
                30          30
                31          31
                32          32
                33          33
                34          34
                35          35
                36          36
                37          37
                38          38
                39          39
                40          40
                41          41
                42          42
                43          43
                44          44
                45          45
                46          46
                47          47
                48          48
                49          49
                50          50
                51          51
                52          52
                53          53

----------------------------------------------------------------------------------------

 
 
 KPOINTS: auto                                    

Automatic generation of k-mesh.
 Grid dimensions read from file:
 generate k-points for:    1    1    1

 Generating k-lattice:

  Cartesian coordinates                     Fractional coordinates (reciprocal lattice)
     0.081135903  0.046843835  0.000000000     1.000000000 -0.000000000  0.000000000
     0.000000000  0.093687670  0.000000000     0.000000000  1.000000000  0.000000000
     0.000000000  0.000000000  0.050000000     0.000000000  0.000000000  1.000000000

  Length of vectors
     0.093687670  0.093687670  0.050000000

  Shift w.r.t. Gamma in fractional coordinates (k-lattice)
     0.000000000  0.000000000  0.000000000

 
 Subroutine IBZKPT returns following result:
 ===========================================
 
 Found      1 irreducible k-points:
 
 Following reciprocal coordinates:
            Coordinates               Weight
  0.000000  0.000000  0.000000      1.000000
 
 Following cartesian coordinates:
            Coordinates               Weight
  0.000000  0.000000  0.000000      1.000000
 


--------------------------------------------------------------------------------------------------------




 Dimension of arrays:
   k-points           NKPTS =      1   k-points in BZ     NKDIM =      1   number of bands    NBANDS=    168
   number of dos      NEDOS =    301   number of ions     NIONS =     53
   non local maximal  LDIM  =      4   non local SUM 2l+1 LMDIM =      8
   total plane-waves  NPLWV = ******
   max r-space proj   IRMAX =      1   max aug-charges    IRDMAX=   9736
   dimension x,y,z NGX =   128 NGY =  128 NGZ =  210
   dimension x,y,z NGXF=   256 NGYF=  256 NGZF=  420
   support grid    NGXF=   256 NGYF=  256 NGZF=  420
   ions per type =              51   2
   NGX,Y,Z   is equivalent  to a cutoff of  17.27, 17.27, 17.46 a.u.
   NGXF,Y,Z  is equivalent  to a cutoff of  34.53, 34.53, 34.91 a.u.

 SYSTEM =  unknown system                          
 POSCAR =   C  O                                   

 Startparameter for this run:
   NWRITE =      2    write-flag & timer
   PREC   = accura    normal or accurate (medium, high low for compatibility)
   ISTART =      0    job   : 0-new  1-cont  2-samecut
   ICHARG =      2    charge: 1-file 2-atom 10-const
   ISPIN  =      1    spin polarized calculation?
   LNONCOLLINEAR =      F non collinear calculations
   LSORBIT =      F    spin-orbit coupling
   INIWAV =      1    electr: 0-lowe 1-rand  2-diag
   LASPH  =      T    aspherical Exc in radial PAW
 Electronic Relaxation 1
   ENCUT  = 1000.0 eV  73.50 Ry    8.57 a.u.  31.78 31.78 51.57*2*pi/ulx,y,z
   ENINI  = 1000.0     initial cutoff
   ENAUG  =  946.8 eV  augmentation charge cutoff
   NELM   =     60;   NELMIN=  2; NELMDL= -5     # of ELM steps 
   EDIFF  = 0.1E-06   stopping-criterion for ELM
   LREAL  =      F    real-space projection
   NLSPLINE    = F    spline interpolate recip. space projectors
   LCOMPAT=      F    compatible to vasp.4.4
   GGA_COMPAT  = T    GGA compatible to vasp.4.4-vasp.4.6
   LMAXPAW     = -100 max onsite density
   LMAXMIX     =    2 max onsite mixed and CHGCAR
   VOSKOWN=      0    Vosko Wilk Nusair interpolation
   ROPT   =    0.00000   0.00000
 Ionic relaxation
   EDIFFG = 0.1E-05   stopping-criterion for IOM
   NSW    =      0    number of steps for IOM
   NBLOCK =      1;   KBLOCK =      1    inner block; outer block 
   IBRION =     -1    ionic relax: 0-MD 1-quasi-New 2-CG
   NFREE  =      0    steps in history (QN), initial steepest desc. (CG)
   ISIF   =      0    stress and relaxation
   IWAVPR =     10    prediction:  0-non 1-charg 2-wave 3-comb
   ISYM   =      2    0-nonsym 1-usesym 2-fastsym
   LCORR  =      T    Harris-Foulkes like correction to forces

   POTIM  = 0.5000    time-step for ionic-motion
   TEIN   =    0.0    initial temperature
   TEBEG  =    0.0;   TEEND  =   0.0 temperature during run
   SMASS  =  -3.00    Nose mass-parameter (am)
   estimated Nose-frequenzy (Omega)   =  0.10E-29 period in steps = 0.13E+47 mass=  -0.347E-26a.u.
   SCALEE = 1.0000    scale energy and forces
   NPACO  =    256;   APACO  = 16.0  distance and # of slots for P.C.
   PSTRESS=    0.0 pullay stress

  Mass of Ions in am
   POMASS =  12.01 16.00
  Ionic Valenz
   ZVAL   =   4.00  6.00
  Atomic Wigner-Seitz radii
   RWIGS  =  -1.00 -1.00
  virtual crystal weights 
   VCA    =   1.00  1.00
   NELECT =     216.0000    total number of electrons
   NUPDOWN=      -1.0000    fix difference up-down

 DOS related values:
   EMIN   =  10.00;   EMAX   =-10.00  energy-range for DOS
   EFERMI =   0.00
   ISMEAR =     0;   SIGMA  =   0.01  broadening in eV -4-tet -1-fermi 0-gaus

 Electronic relaxation 2 (details)
   IALGO  =     58    algorithm
   LDIAG  =      T    sub-space diagonalisation (order eigenvalues)
   LSUBROT=      F    optimize rotation matrix (better conditioning)
   TURBO    =      0    0=normal 1=particle mesh
   IRESTART =      0    0=no restart 2=restart with 2 vectors
   NREBOOT  =      0    no. of reboots
   NMIN     =      0    reboot dimension
   EREF     =   0.00    reference energy to select bands
   IMIX   =      4    mixing-type and parameters
     AMIX     =   0.40;   BMIX     =  1.00
     AMIX_MAG =   1.60;   BMIX_MAG =  1.00
     AMIN     =   0.10
     WC   =   100.;   INIMIX=   1;  MIXPRE=   1;  MAXMIX= -45

 Intra band minimization:
   WEIMIN = 0.0000     energy-eigenvalue tresh-hold
   EBREAK =  0.15E-09  absolut break condition
   DEPER  =   0.30     relativ break condition  

   TIME   =   0.40     timestep for ELM

  volume/ion in A,a.u.               =      49.64       335.01
  Fermi-wavevector in a.u.,A,eV,Ry     =   0.711510  1.344560  6.887909  0.506247
  Thomas-Fermi vector in A             =   1.798641
 
 Write flags
   LWAVE        =      T    write WAVECAR
   LDOWNSAMPLE  =      F    k-point downsampling of WAVECAR
   LCHARG       =      T    write CHGCAR
   LVTOT        =      F    write LOCPOT, total local potential
   LVHAR        =      F    write LOCPOT, Hartree potential only
   LELF         =      F    write electronic localiz. function (ELF)
   LORBIT       =      0    0 simple, 1 ext, 2 COOP (PROOUT), +10 PAW based schemes


 Dipole corrections
   LMONO  =      F    monopole corrections only (constant potential shift)
   LDIPOL =      F    correct potential (dipole corrections)
   IDIPOL =      0    1-x, 2-y, 3-z, 4-all directions 
   EPSILON=  1.0000000 bulk dielectric constant

 Exchange correlation treatment:
   GGA     =    --    GGA type
   LEXCH   =     8    internal setting for exchange type
   VOSKOWN=      0    Vosko Wilk Nusair interpolation
   LHFCALC =     F    Hartree Fock is set to
   LHFONE  =     F    Hartree Fock one center treatment
   AEXX    =    0.0000 exact exchange contribution

 Linear response parameters
   LEPSILON=     F    determine dielectric tensor
   LRPA    =     F    only Hartree local field effects (RPA)
   LNABLA  =     F    use nabla operator in PAW spheres
   LVEL    =     F    velocity operator in full k-point grid
   LINTERFAST=   F  fast interpolation
   KINTER  =     0    interpolate to denser k-point grid
   CSHIFT  =0.1000    complex shift for real part using Kramers Kronig
   OMEGAMAX=  -1.0    maximum frequency
   DEG_THRESHOLD= 0.2000000E-02 threshold for treating states as degnerate
   RTIME   =   -0.100 relaxation time in fs
  (WPLASMAI=    0.000 imaginary part of plasma frequency in eV, 0.658/RTIME)
   DFIELD  = 0.0000000 0.0000000 0.0000000 field for delta impulse in time
 
 Orbital magnetization related:
   ORBITALMAG=     F  switch on orbital magnetization
   LCHIMAG   =     F  perturbation theory with respect to B field
   DQ        =  0.001000  dq finite difference perturbation B field
   LLRAUG    =     F  two centre corrections for induced B field



--------------------------------------------------------------------------------------------------------


 Static calculation
 charge density and potential will be updated during run
 non-spin polarized calculation
 Conjugate gradient for all bands (Freysoldt, et al. PRB 79, 241103 (2009))
 preconditioned conjugated gradient                                        
 perform sub-space diagonalisation
    before iterative eigenvector-optimisation
 modified Broyden-mixing scheme, WC =      100.0
 initial mixing is a Kerker type mixing with AMIX =  0.4000 and BMIX =      1.0000
 Hartree-type preconditioning will be used
 using additional bands           60
 reciprocal scheme for non local part
 use partial core corrections
 no Harris-corrections to forces 
 use gradient corrections 
 use of overlap-Matrix (Vanderbilt PP)
 Gauss-broadening in eV      SIGMA  =   0.01


--------------------------------------------------------------------------------------------------------


  energy-cutoff  :     1000.00
  volume of cell :     2631.08
      direct lattice vectors                 reciprocal lattice vectors
    12.325000000  0.000000000  0.000000000     0.081135903  0.046843835  0.000000000
    -6.162500000 10.673763102  0.000000000     0.000000000  0.093687670  0.000000000
     0.000000000  0.000000000 20.000000000     0.000000000  0.000000000  0.050000000

  length of vectors
    12.325000000 12.325000000 20.000000000     0.093687670  0.093687670  0.050000000


 
 k-points in units of 2pi/SCALE and weight: auto                                    
   0.00000000  0.00000000  0.00000000       1.000
 
 k-points in reciprocal lattice and weights: auto                                    
   0.00000000  0.00000000  0.00000000       1.000
 
 position of ions in fractional coordinates (direct lattice) 
   0.97245084  0.00032082  0.00070839
   0.03911838  0.13365950  0.00055022
   0.17244363  0.00029545  0.00062454
   0.23909628  0.13364792  0.00032058
   0.97245206  0.20032201  0.00060652
   0.03912836  0.33364377  0.00055519
   0.17245176  0.20035455  0.00027396
   0.23912436  0.33366572  0.00009033
   0.37246557  0.00032440  0.00056739
   0.43913747  0.13361994  0.00032292
   0.97244982  0.40030936  0.00068451
   0.03912498  0.53363679  0.00071676
   0.37241618  0.40032948  0.00000000
   0.43909960  0.53363898  0.00029052
   0.57244368  0.00031213  0.00069947
   0.63911021  0.13363175  0.00068409
   0.97245270  0.60030565  0.00080036
   0.03912449  0.73364036  0.00081814
   0.57243347  0.60030624  0.00050362
   0.63911189  0.73364188  0.00065988
   0.17245463  0.40031823  0.00036131
   0.23912018  0.53363655  0.00047314
   0.37245975  0.20029599  0.00011125
   0.43910710  0.33367342  0.00006970
   0.17245216  0.60031151  0.00065542
   0.23912337  0.73363857  0.00071891
   0.57243108  0.20028917  0.00051662
   0.63911277  0.33361863  0.00057797
   0.37243981  0.60030802  0.00045356
   0.43911609  0.73363786  0.00061774
   0.57246936  0.40032050  0.00042490
   0.63911941  0.53365087  0.00057451
   0.77244572  0.00031543  0.00074520
   0.83911628  0.13364020  0.00071913
   0.77244051  0.20030743  0.00072629
   0.83912024  0.33363573  0.00073183
   0.77244632  0.40029837  0.00072872
   0.83911898  0.53363396  0.00077638
   0.77245614  0.60030817  0.00074464
   0.83911503  0.73364318  0.00078939
   0.97245531  0.80030558  0.00081529
   0.03911471  0.93364329  0.00074756
   0.17245797  0.80031221  0.00077922
   0.23913455  0.93364719  0.00068106
   0.37245140  0.80031667  0.00068925
   0.43912449  0.93364477  0.00067679
   0.57244110  0.80031005  0.00066817
   0.63911507  0.93363899  0.00073456
   0.77244510  0.80031319  0.00075258
   0.83911661  0.93364434  0.00075854
   0.37302101  0.25122688  0.16685498
   0.42087980  0.18931315  0.17007607
   0.32515698  0.31316719  0.16388224
 
 position of ions in cartesian coordinates  (Angst):
  11.98347958  0.00342433  0.01416777
  -0.34154264  1.42664989  0.01100432
   2.12354700  0.00315355  0.01249070
   2.12325634  1.42652621  0.00641170
  10.75098721  2.13818970  0.01213047
  -1.57382270  3.56123457  0.01110375
   0.89078307  2.13853702  0.00547917
   0.89099273  3.56146885  0.00180651
   4.58863896  0.00346260  0.01134782
   4.58893648  1.42622757  0.00645846
   9.51853763  4.27280730  0.01369027
  -2.80632132  5.69591267  0.01433526
   2.12299894  4.27302204  0.00000000
   2.12335237  5.69593607  0.00581036
   7.05344483  0.00333155  0.01398950
   7.05352764  1.42635365  0.01368187
   8.28609598  6.40752033  0.01600723
  -4.03884931  7.83070339  0.01636283
   3.35585531  6.40752662  0.01007237
   3.35598594  7.83071962  0.01319763
  -0.34145776  4.27290193  0.00722612
  -0.34137895  5.69591010  0.00946273
   3.35624236  2.13791198  0.00222492
   3.35573251  3.56155103  0.00139405
  -1.57394684  6.40758280  0.01310850
  -1.57385216  7.83068434  0.01437823
   5.82093107  2.13783916  0.01033241
   5.82114012  3.56096622  0.01155939
   0.89092245  6.40754561  0.00907111
   0.89106251  7.83067670  0.01235474
   4.58870974  4.27292622  0.00849795
   4.58852320  5.69606300  0.01149026
   9.51844972  0.00336679  0.01490402
   9.51855036  1.42644387  0.01438264
   8.28593477  2.13803408  0.01452582
   8.28612680  3.56114872  0.01463668
   7.05356221  4.27268994  0.01457444
   7.05362213  5.69588251  0.01552751
   5.82112285  6.40754723  0.01489279
   5.82101669  7.83073350  0.01578780
   7.05362858  8.54227219  0.01630582
  -5.27148792  9.96548729  0.01495127
  -2.80637951  8.54234295  0.01558431
  -2.80626749  9.96552896  0.01362126
  -0.34148805  8.54239058  0.01378498
  -0.34137657  9.96550309  0.01353576
   2.12342586  8.54231992  0.01336337
   2.12354296  9.96544135  0.01469111
   4.58845581  8.54235337  0.01505154
   4.58852904  9.96549848  0.01517076
   3.04929830  2.68153618  3.33709964
   4.02070129  2.02068374  3.40152150
   2.07766701  3.34267235  3.27764477
 


--------------------------------------------------------------------------------------------------------


 k-point   1 :   0.0000 0.0000 0.0000  plane waves:  189031

 maximum and minimum number of plane-waves per node :    189031   189031

 maximum number of plane-waves:    189031
 maximum index in each direction: 
   IXMAX=   31   IYMAX=   31   IZMAX=   51
   IXMIN=  -31   IYMIN=  -31   IZMIN=  -51


 serial   3D FFT for wavefunctions
 parallel 3D FFT for charge:
    minimum data exchange during FFTs selected (reduces bandwidth)


 total amount of memory used by VASP MPI-rank0   556209. kBytes
=======================================================================

   base      :      30000. kBytes
   nonl-proj :     184518. kBytes
   fftplans  :      31725. kBytes
   grid      :     282516. kBytes
   one-center:        162. kBytes
   wavefun   :      27288. kBytes
 
     INWAV:  cpu time    0.0001: real time    0.0001
 Broyden mixing: mesh for mixing (old mesh)
   NGX = 63   NGY = 63   NGZ =103
  (NGX  =256   NGY  =256   NGZ  =420)
  gives a total of 408807 points

 initial charge density was supplied:
 charge density of overlapping atoms calculated
 number of electron     216.0000000 magnetization 
 keeping initial charge density in first step


--------------------------------------------------------------------------------------------------------


 Maximum index for augmentation-charges          459 (set IRDMAX)


--------------------------------------------------------------------------------------------------------


 First call to EWALD:  gamma=   0.128
 Maximum number of real-space cells 3x 3x 2
 Maximum number of reciprocal cells 3x 3x 4

    FEWALD:  cpu time    0.0041: real time    0.0042


--------------------------------------- Iteration      1(   1)  ---------------------------------------


    POTLOK:  cpu time    1.4672: real time    1.4761
    SETDIJ:  cpu time    0.2349: real time    0.2358
    TRIAL :  cpu time   21.7340: real time   21.9180
    CORREC:  cpu time    0.0004: real time    0.0007
    --------------------------------------------
      LOOP:  cpu time   23.4505: real time   23.6507

 eigenvalue-minimisations  :   336
 total energy-change (2. order) : 0.2420446E+04  (-0.1181427E+05)
 number of electron     216.0000000 magnetization 
 augmentation part      216.0000000 magnetization 

 Free energy of the ion-electron system (eV)
  ---------------------------------------------------
  alpha Z        PSCENC =        59.93625244
  Ewald energy   TEWEN  =     34106.83082198
  -Hartree energ DENC   =    -40281.90272376
  -exchange      EXHF   =         0.00000000
  -V(xc)+E(xc)   XCENC  =       602.97221474
  PAW double counting   =      6339.73130699    -6197.22120962
  entropy T*S    EENTRO =        -0.00000000
  eigenvalues    EBANDS =      -579.42420378
  atomic energy  EATOM  =      8369.52358910
  ---------------------------------------------------
  free energy    TOTEN  =      2420.44604810 eV

  energy without entropy =     2420.44604810  energy(sigma->0) =     2420.44604810


--------------------------------------------------------------------------------------------------------




--------------------------------------- Iteration      1(   2)  ---------------------------------------


    TRIAL :  cpu time   35.5221: real time   35.7952
    CORREC:  cpu time    0.0001: real time    0.0001
    --------------------------------------------
      LOOP:  cpu time   35.5466: real time   35.8466

 eigenvalue-minimisations  :   672
 total energy-change (2. order) :-0.2480344E+04  (-0.2368215E+04)
 number of electron     216.0000000 magnetization 
 augmentation part      216.0000000 magnetization 

 Free energy of the ion-electron system (eV)
  ---------------------------------------------------
  alpha Z        PSCENC =        59.93625244
  Ewald energy   TEWEN  =     34106.83082198
  -Hartree energ DENC   =    -40281.90272376
  -exchange      EXHF   =         0.00000000
  -V(xc)+E(xc)   XCENC  =       602.97221474
  PAW double counting   =      6339.73130699    -6197.22120962
  entropy T*S    EENTRO =        -0.00000000
  eigenvalues    EBANDS =     -3059.76813667
  atomic energy  EATOM  =      8369.52358910
  ---------------------------------------------------
  free energy    TOTEN  =       -59.89788480 eV

  energy without entropy =      -59.89788480  energy(sigma->0) =      -59.89788480


--------------------------------------------------------------------------------------------------------




--------------------------------------- Iteration      1(   3)  ---------------------------------------


    TRIAL :  cpu time   24.0118: real time   24.1953
    CORREC:  cpu time    0.0001: real time    0.0001
    --------------------------------------------
      LOOP:  cpu time   24.0907: real time   24.2789

 eigenvalue-minimisations  :   392
 total energy-change (2. order) :-0.5352912E+03  (-0.5325359E+03)
 number of electron     216.0000000 magnetization 
 augmentation part      216.0000000 magnetization 

 Free energy of the ion-electron system (eV)
  ---------------------------------------------------
  alpha Z        PSCENC =        59.93625244
  Ewald energy   TEWEN  =     34106.83082198
  -Hartree energ DENC   =    -40281.90272376
  -exchange      EXHF   =         0.00000000
  -V(xc)+E(xc)   XCENC  =       602.97221474
  PAW double counting   =      6339.73130699    -6197.22120962
  entropy T*S    EENTRO =        -0.00000000
  eigenvalues    EBANDS =     -3595.05934985
  atomic energy  EATOM  =      8369.52358910
  ---------------------------------------------------
  free energy    TOTEN  =      -595.18909798 eV

  energy without entropy =     -595.18909798  energy(sigma->0) =     -595.18909798


--------------------------------------------------------------------------------------------------------




--------------------------------------- Iteration      1(   4)  ---------------------------------------


    TRIAL :  cpu time   26.2968: real time   26.4941
    CORREC:  cpu time    0.0001: real time    0.0003
    --------------------------------------------
      LOOP:  cpu time   26.3501: real time   26.5589

 eigenvalue-minimisations  :   448
 total energy-change (2. order) :-0.2456384E+02  (-0.2441245E+02)
 number of electron     216.0000000 magnetization 
 augmentation part      216.0000000 magnetization 

 Free energy of the ion-electron system (eV)
  ---------------------------------------------------
  alpha Z        PSCENC =        59.93625244
  Ewald energy   TEWEN  =     34106.83082198
  -Hartree energ DENC   =    -40281.90272376
  -exchange      EXHF   =         0.00000000
  -V(xc)+E(xc)   XCENC  =       602.97221474
  PAW double counting   =      6339.73130699    -6197.22120962
  entropy T*S    EENTRO =        -0.00000000
  eigenvalues    EBANDS =     -3619.62319034
  atomic energy  EATOM  =      8369.52358910
  ---------------------------------------------------
  free energy    TOTEN  =      -619.75293846 eV

  energy without entropy =     -619.75293846  energy(sigma->0) =     -619.75293846


--------------------------------------------------------------------------------------------------------




--------------------------------------- Iteration      1(   5)  ---------------------------------------


    TRIAL :  cpu time   26.2052: real time   26.4916
    CORREC:  cpu time    0.0001: real time    0.0001
    CHARGE:  cpu time    2.2838: real time    2.3023
    --------------------------------------------
      LOOP:  cpu time   28.5344: real time   28.8409

 eigenvalue-minimisations  :   448
 total energy-change (2. order) :-0.8628938E+00  (-0.8589490E+00)
 number of electron     216.0000000 magnetization 
 augmentation part       -0.4302465 magnetization 

 Free energy of the ion-electron system (eV)
  ---------------------------------------------------
  alpha Z        PSCENC =        59.93625244
  Ewald energy   TEWEN  =     34106.83082198
  -Hartree energ DENC   =    -40281.90272376
  -exchange      EXHF   =         0.00000000
  -V(xc)+E(xc)   XCENC  =       602.97221474
  PAW double counting   =      6339.73130699    -6197.22120962
  entropy T*S    EENTRO =        -0.00000000
  eigenvalues    EBANDS =     -3620.48608419
  atomic energy  EATOM  =      8369.52358910
  ---------------------------------------------------
  free energy    TOTEN  =      -620.61583231 eV

  energy without entropy =     -620.61583231  energy(sigma->0) =     -620.61583231


--------------------------------------------------------------------------------------------------------




--------------------------------------- Iteration      1(   6)  ---------------------------------------


    POTLOK:  cpu time    1.4529: real time    1.4607
    SETDIJ:  cpu time    0.2289: real time    0.2296
    TRIAL :  cpu time   15.4869: real time   15.6030
    CORREC:  cpu time    7.1018: real time    7.1547
    CHARGE:  cpu time    2.2845: real time    2.3031
    --------------------------------------------
      LOOP:  cpu time   26.5847: real time   26.7831

 eigenvalue-minimisations  :     0
 total energy-change (2. order) : 0.1039507E+03  (-0.1211648E+02)
 number of electron     216.0000000 magnetization 
 augmentation part       -0.4898358 magnetization 

 Free energy of the ion-electron system (eV)
  ---------------------------------------------------
  alpha Z        PSCENC =        59.93625244
  Ewald energy   TEWEN  =     34106.83082198
  -Hartree energ DENC   =    -41614.11111681
  -exchange      EXHF   =         0.00000000
  -V(xc)+E(xc)   XCENC  =       669.66023529
  PAW double counting   =    113674.00386468  -113537.22419553
  entropy T*S    EENTRO =        -0.00000000
  eigenvalues    EBANDS =     -2245.28455640
  atomic energy  EATOM  =      8369.52358910
  ---------------------------------------------------
  free energy    TOTEN  =      -516.66510525 eV

  energy without entropy =     -516.66510525  energy(sigma->0) =     -516.66510525


--------------------------------------------------------------------------------------------------------




--------------------------------------- Iteration      1(   7)  ---------------------------------------


    POTLOK:  cpu time    1.4396: real time    1.4472
    SETDIJ:  cpu time    0.2262: real time    0.2269
    TRIAL :  cpu time   15.5045: real time   15.6168
    CORREC:  cpu time    7.1054: real time    7.1549
    CHARGE:  cpu time    2.2648: real time    2.2973
    --------------------------------------------
      LOOP:  cpu time   26.5627: real time   26.7878

 eigenvalue-minimisations  :     0
 total energy-change (2. order) :-0.1212782E+02  (-0.1546045E+01)
 number of electron     216.0000000 magnetization 
 augmentation part       -0.5197831 magnetization 

 Free energy of the ion-electron system (eV)
  ---------------------------------------------------
  alpha Z        PSCENC =        59.93625244
  Ewald energy   TEWEN  =     34106.83082198
  -Hartree energ DENC   =    -41191.34399422
  -exchange      EXHF   =         0.00000000
  -V(xc)+E(xc)   XCENC  =       649.73096034
  PAW double counting   =    132024.13348264  -131884.59142443
  entropy T*S    EENTRO =        -0.00000000
  eigenvalues    EBANDS =     -2663.01261298
  atomic energy  EATOM  =      8369.52358910
  ---------------------------------------------------
  free energy    TOTEN  =      -528.79292514 eV

  energy without entropy =     -528.79292514  energy(sigma->0) =     -528.79292514


--------------------------------------------------------------------------------------------------------




--------------------------------------- Iteration      1(   8)  ---------------------------------------


    POTLOK:  cpu time    1.4410: real time    1.4487
    SETDIJ:  cpu time    0.2226: real time    0.2233
    TRIAL :  cpu time   15.5003: real time   15.6134
    CORREC:  cpu time    7.1049: real time    7.1542
    CHARGE:  cpu time    2.2779: real time    2.2954
    --------------------------------------------
      LOOP:  cpu time   26.5635: real time   26.7568

 eigenvalue-minimisations  :     0
 total energy-change (2. order) :-0.1546880E+01  (-0.4943986E+00)
 number of electron     216.0000000 magnetization 
 augmentation part       -0.5181982 magnetization 

 Free energy of the ion-electron system (eV)
  ---------------------------------------------------
  alpha Z        PSCENC =        59.93625244
  Ewald energy   TEWEN  =     34106.83082198
  -Hartree energ DENC   =    -41166.25601685
  -exchange      EXHF   =         0.00000000
  -V(xc)+E(xc)   XCENC  =       648.24100226
  PAW double counting   =    140273.03687755  -140133.02197846
  entropy T*S    EENTRO =        -0.00000000
  eigenvalues    EBANDS =     -2688.63035301
  atomic energy  EATOM  =      8369.52358910
  ---------------------------------------------------
  free energy    TOTEN  =      -530.33980499 eV

  energy without entropy =     -530.33980499  energy(sigma->0) =     -530.33980499


--------------------------------------------------------------------------------------------------------




--------------------------------------- Iteration      1(   9)  ---------------------------------------


    POTLOK:  cpu time    1.4448: real time    1.4526
    SETDIJ:  cpu time    0.2235: real time    0.2243
    TRIAL :  cpu time   15.4442: real time   15.5945
    CORREC:  cpu time    7.0928: real time    7.1507
    CHARGE:  cpu time    2.2805: real time    2.2970
    --------------------------------------------
      LOOP:  cpu time   26.5615: real time   26.8021

 eigenvalue-minimisations  :     0
 total energy-change (2. order) :-0.4940212E+00  (-0.1906064E+00)
 number of electron     216.0000000 magnetization 
 augmentation part       -0.5134199 magnetization 

 Free energy of the ion-electron system (eV)
  ---------------------------------------------------
  alpha Z        PSCENC =        59.93625244
  Ewald energy   TEWEN  =     34106.83082198
  -Hartree energ DENC   =    -41173.24435617
  -exchange      EXHF   =         0.00000000
  -V(xc)+E(xc)   XCENC  =       648.01187901
  PAW double counting   =    146343.21524571  -146203.00776971
  entropy T*S    EENTRO =        -0.00000000
  eigenvalues    EBANDS =     -2682.09948857
  atomic energy  EATOM  =      8369.52358910
  ---------------------------------------------------
  free energy    TOTEN  =      -530.83382621 eV

  energy without entropy =     -530.83382621  energy(sigma->0) =     -530.83382621


--------------------------------------------------------------------------------------------------------




--------------------------------------- Iteration      1(  10)  ---------------------------------------


    POTLOK:  cpu time    1.4458: real time    1.4563
    SETDIJ:  cpu time    0.2216: real time    0.2224
    TRIAL :  cpu time   15.4776: real time   15.6031
    CORREC:  cpu time    7.1128: real time    7.1808
    CHARGE:  cpu time    2.2826: real time    2.2986
    --------------------------------------------
      LOOP:  cpu time   26.6157: real time   26.8404

 eigenvalue-minimisations  :     0
 total energy-change (2. order) :-0.1904006E+00  (-0.8016923E-01)
 number of electron     216.0000000 magnetization 
 augmentation part       -0.5076250 magnetization 

 Free energy of the ion-electron system (eV)
  ---------------------------------------------------
  alpha Z        PSCENC =        59.93625244
  Ewald energy   TEWEN  =     34106.83082198
  -Hartree energ DENC   =    -41172.60690788
  -exchange      EXHF   =         0.00000000
  -V(xc)+E(xc)   XCENC  =       647.81831485
  PAW double counting   =    148668.73724337  -148528.43749689
  entropy T*S    EENTRO =        -0.00000000
  eigenvalues    EBANDS =     -2682.82604374
  atomic energy  EATOM  =      8369.52358910
  ---------------------------------------------------
  free energy    TOTEN  =      -531.02422678 eV

  energy without entropy =     -531.02422678  energy(sigma->0) =     -531.02422678


--------------------------------------------------------------------------------------------------------




--------------------------------------- Iteration      1(  11)  ---------------------------------------


    POTLOK:  cpu time    1.4481: real time    1.4588
    SETDIJ:  cpu time    0.2271: real time    0.2279
    TRIAL :  cpu time   15.4324: real time   15.5951
    CORREC:  cpu time    7.0798: real time    7.1669
    CHARGE:  cpu time    2.2771: real time    2.2974
    --------------------------------------------
      LOOP:  cpu time   26.4814: real time   26.7755

 eigenvalue-minimisations  :     0
 total energy-change (2. order) :-0.8002374E-01  (-0.3146596E-01)
 number of electron     216.0000000 magnetization 
 augmentation part       -0.5041569 magnetization 

 Free energy of the ion-electron system (eV)
  ---------------------------------------------------
  alpha Z        PSCENC =        59.93625244
  Ewald energy   TEWEN  =     34106.83082198
  -Hartree energ DENC   =    -41167.12402721
  -exchange      EXHF   =         0.00000000
  -V(xc)+E(xc)   XCENC  =       647.68072516
  PAW double counting   =    148580.83121652  -148440.53022316
  entropy T*S    EENTRO =        -0.00000000
  eigenvalues    EBANDS =     -2688.25260534
  atomic energy  EATOM  =      8369.52358910
  ---------------------------------------------------
  free energy    TOTEN  =      -531.10425052 eV

  energy without entropy =     -531.10425052  energy(sigma->0) =     -531.10425052


--------------------------------------------------------------------------------------------------------




--------------------------------------- Iteration      1(  12)  ---------------------------------------


    POTLOK:  cpu time    1.4599: real time    1.4678
    SETDIJ:  cpu time    0.2157: real time    0.2165
    TRIAL :  cpu time   15.4806: real time   15.6045
    CORREC:  cpu time    7.1075: real time    7.1608
    CHARGE:  cpu time    2.2813: real time    2.2982
    --------------------------------------------
      LOOP:  cpu time   26.5748: real time   26.7782

 eigenvalue-minimisations  :     0
 total energy-change (2. order) :-0.3143513E-01  (-0.1019990E-01)
 number of electron     216.0000000 magnetization 
 augmentation part       -0.5042522 magnetization 

 Free energy of the ion-electron system (eV)
  ---------------------------------------------------
  alpha Z        PSCENC =        59.93625244
  Ewald energy   TEWEN  =     34106.83082198
  -Hartree energ DENC   =    -41162.76141777
  -exchange      EXHF   =         0.00000000
  -V(xc)+E(xc)   XCENC  =       647.58388052
  PAW double counting   =    147896.30694541  -147756.03092505
  entropy T*S    EENTRO =        -0.00000000
  eigenvalues    EBANDS =     -2692.52483227
  atomic energy  EATOM  =      8369.52358910
  ---------------------------------------------------
  free energy    TOTEN  =      -531.13568565 eV

  energy without entropy =     -531.13568565  energy(sigma->0) =     -531.13568565


--------------------------------------------------------------------------------------------------------




--------------------------------------- Iteration      1(  13)  ---------------------------------------


    POTLOK:  cpu time    1.4490: real time    1.4573
    SETDIJ:  cpu time    0.2217: real time    0.2224
    TRIAL :  cpu time   15.4730: real time   15.5993
    CORREC:  cpu time    7.1302: real time    7.1821
    CHARGE:  cpu time    2.2730: real time    2.3005
    --------------------------------------------
      LOOP:  cpu time   26.6126: real time   26.8297

 eigenvalue-minimisations  :     0
 total energy-change (2. order) :-0.1020646E-01  (-0.2845865E-02)
 number of electron     216.0000000 magnetization 
 augmentation part       -0.5049093 magnetization 

 Free energy of the ion-electron system (eV)
  ---------------------------------------------------
  alpha Z        PSCENC =        59.93625244
  Ewald energy   TEWEN  =     34106.83082198
  -Hartree energ DENC   =    -41161.26819149
  -exchange      EXHF   =         0.00000000
  -V(xc)+E(xc)   XCENC  =       647.53186873
  PAW double counting   =    147378.11362505  -147237.84953390
  entropy T*S    EENTRO =        -0.00000000
  eigenvalues    EBANDS =     -2693.96432403
  atomic energy  EATOM  =      8369.52358910
  ---------------------------------------------------
  free energy    TOTEN  =      -531.14589211 eV

  energy without entropy =     -531.14589211  energy(sigma->0) =     -531.14589211


--------------------------------------------------------------------------------------------------------




--------------------------------------- Iteration      1(  14)  ---------------------------------------


    POTLOK:  cpu time    1.4434: real time    1.4584
    SETDIJ:  cpu time    0.2244: real time    0.2251
    TRIAL :  cpu time   15.4535: real time   15.6019
    CORREC:  cpu time    7.1124: real time    7.1625
    CHARGE:  cpu time    2.2819: real time    2.2983
    --------------------------------------------
      LOOP:  cpu time   26.5806: real time   26.8307

 eigenvalue-minimisations  :     0
 total energy-change (2. order) :-0.2850270E-02  (-0.7307967E-03)
 number of electron     216.0000000 magnetization 
 augmentation part       -0.5051359 magnetization 

 Free energy of the ion-electron system (eV)
  ---------------------------------------------------
  alpha Z        PSCENC =        59.93625244
  Ewald energy   TEWEN  =     34106.83082198
  -Hartree energ DENC   =    -41161.18382842
  -exchange      EXHF   =         0.00000000
  -V(xc)+E(xc)   XCENC  =       647.52620216
  PAW double counting   =    147142.21712012  -147001.95837612
  entropy T*S    EENTRO =        -0.00000000
  eigenvalues    EBANDS =     -2694.04052364
  atomic energy  EATOM  =      8369.52358910
  ---------------------------------------------------
  free energy    TOTEN  =      -531.14874238 eV

  energy without entropy =     -531.14874238  energy(sigma->0) =     -531.14874238


--------------------------------------------------------------------------------------------------------




--------------------------------------- Iteration      1(  15)  ---------------------------------------


    POTLOK:  cpu time    1.4472: real time    1.4551
    SETDIJ:  cpu time    0.2302: real time    0.2310
    TRIAL :  cpu time   15.4870: real time   15.6113
    CORREC:  cpu time    7.0724: real time    7.1597
    CHARGE:  cpu time    2.2943: real time    2.3104
    --------------------------------------------
      LOOP:  cpu time   26.5681: real time   26.8113

 eigenvalue-minimisations  :     0
 total energy-change (2. order) :-0.7310439E-03  (-0.1909014E-03)
 number of electron     216.0000000 magnetization 
 augmentation part       -0.5052476 magnetization 

 Free energy of the ion-electron system (eV)
  ---------------------------------------------------
  alpha Z        PSCENC =        59.93625244
  Ewald energy   TEWEN  =     34106.83082198
  -Hartree energ DENC   =    -41161.08280298
  -exchange      EXHF   =         0.00000000
  -V(xc)+E(xc)   XCENC  =       647.52740622
  PAW double counting   =    147047.52665280  -146907.27058246
  entropy T*S    EENTRO =        -0.00000000
  eigenvalues    EBANDS =     -2694.14081052
  atomic energy  EATOM  =      8369.52358910
  ---------------------------------------------------
  free energy    TOTEN  =      -531.14947342 eV

  energy without entropy =     -531.14947342  energy(sigma->0) =     -531.14947342


--------------------------------------------------------------------------------------------------------




--------------------------------------- Iteration      1(  16)  ---------------------------------------


    POTLOK:  cpu time    1.4442: real time    1.4523
    SETDIJ:  cpu time    0.2325: real time    0.2333
    TRIAL :  cpu time   15.4838: real time   15.6223
    CORREC:  cpu time    7.1231: real time    7.1713
    CHARGE:  cpu time    2.2816: real time    2.2999
    --------------------------------------------
      LOOP:  cpu time   26.5690: real time   26.7874

 eigenvalue-minimisations  :     0
 total energy-change (2. order) :-0.1916024E-03  (-0.5686655E-04)
 number of electron     216.0000000 magnetization 
 augmentation part       -0.5052697 magnetization 

 Free energy of the ion-electron system (eV)
  ---------------------------------------------------
  alpha Z        PSCENC =        59.93625244
  Ewald energy   TEWEN  =     34106.83082198
  -Hartree energ DENC   =    -41160.99617511
  -exchange      EXHF   =         0.00000000
  -V(xc)+E(xc)   XCENC  =       647.52581817
  PAW double counting   =    146991.47050100  -146851.21495569
  entropy T*S    EENTRO =        -0.00000000
  eigenvalues    EBANDS =     -2694.22551692
  atomic energy  EATOM  =      8369.52358910
  ---------------------------------------------------
  free energy    TOTEN  =      -531.14966503 eV

  energy without entropy =     -531.14966503  energy(sigma->0) =     -531.14966503


--------------------------------------------------------------------------------------------------------




--------------------------------------- Iteration      1(  17)  ---------------------------------------


    POTLOK:  cpu time    1.4480: real time    1.4557
    SETDIJ:  cpu time    0.2424: real time    0.2433
    TRIAL :  cpu time   15.4791: real time   15.5977
    CORREC:  cpu time    7.1155: real time    7.1638
    CHARGE:  cpu time    2.2827: real time    2.2991
    --------------------------------------------
      LOOP:  cpu time   26.5917: real time   26.7897

 eigenvalue-minimisations  :     0
 total energy-change (2. order) :-0.5659339E-04  (-0.2099592E-04)
 number of electron     216.0000000 magnetization 
 augmentation part       -0.5052754 magnetization 

 Free energy of the ion-electron system (eV)
  ---------------------------------------------------
  alpha Z        PSCENC =        59.93625244
  Ewald energy   TEWEN  =     34106.83082198
  -Hartree energ DENC   =    -41161.11889225
  -exchange      EXHF   =         0.00000000
  -V(xc)+E(xc)   XCENC  =       647.53220860
  PAW double counting   =    146952.16636452  -146811.91150405
  entropy T*S    EENTRO =        -0.00000000
  eigenvalues    EBANDS =     -2694.10856195
  atomic energy  EATOM  =      8369.52358910
  ---------------------------------------------------
  free energy    TOTEN  =      -531.14972162 eV

  energy without entropy =     -531.14972162  energy(sigma->0) =     -531.14972162


--------------------------------------------------------------------------------------------------------




--------------------------------------- Iteration      1(  18)  ---------------------------------------


    POTLOK:  cpu time    1.4474: real time    1.4554
    SETDIJ:  cpu time    0.2300: real time    0.2308
    TRIAL :  cpu time   15.4794: real time   15.6003
    CORREC:  cpu time    7.1197: real time    7.1698
    CHARGE:  cpu time    2.2792: real time    2.2993
    --------------------------------------------
      LOOP:  cpu time   26.5984: real time   26.8000

 eigenvalue-minimisations  :     0
 total energy-change (2. order) :-0.2041602E-04  (-0.7893242E-05)
 number of electron     216.0000000 magnetization 
 augmentation part       -0.5053035 magnetization 

 Free energy of the ion-electron system (eV)
  ---------------------------------------------------
  alpha Z        PSCENC =        59.93625244
  Ewald energy   TEWEN  =     34106.83082198
  -Hartree energ DENC   =    -41161.19259522
  -exchange      EXHF   =         0.00000000
  -V(xc)+E(xc)   XCENC  =       647.53550766
  PAW double counting   =    146934.87621318  -146794.62134332
  entropy T*S    EENTRO =        -0.00000000
  eigenvalues    EBANDS =     -2694.03818785
  atomic energy  EATOM  =      8369.52358910
  ---------------------------------------------------
  free energy    TOTEN  =      -531.14974204 eV

  energy without entropy =     -531.14974204  energy(sigma->0) =     -531.14974204


--------------------------------------------------------------------------------------------------------




--------------------------------------- Iteration      1(  19)  ---------------------------------------


    POTLOK:  cpu time    1.4461: real time    1.4543
    SETDIJ:  cpu time    0.2305: real time    0.2314
    TRIAL :  cpu time   15.5033: real time   15.6313
    CORREC:  cpu time    7.1205: real time    7.1688
    CHARGE:  cpu time    2.2773: real time    2.2934
    --------------------------------------------
      LOOP:  cpu time   26.5884: real time   26.7942

 eigenvalue-minimisations  :     0
 total energy-change (2. order) :-0.7688504E-05  (-0.3790904E-05)
 number of electron     216.0000000 magnetization 
 augmentation part       -0.5053172 magnetization 

 Free energy of the ion-electron system (eV)
  ---------------------------------------------------
  alpha Z        PSCENC =        59.93625244
  Ewald energy   TEWEN  =     34106.83082198
  -Hartree energ DENC   =    -41161.19506428
  -exchange      EXHF   =         0.00000000
  -V(xc)+E(xc)   XCENC  =       647.53502156
  PAW double counting   =    146936.29564887  -146796.04026115
  entropy T*S    EENTRO =        -0.00000000
  eigenvalues    EBANDS =     -2694.03575825
  atomic energy  EATOM  =      8369.52358910
  ---------------------------------------------------
  free energy    TOTEN  =      -531.14974972 eV

  energy without entropy =     -531.14974972  energy(sigma->0) =     -531.14974972


--------------------------------------------------------------------------------------------------------




--------------------------------------- Iteration      1(  20)  ---------------------------------------


    POTLOK:  cpu time    1.4508: real time    1.4587
    SETDIJ:  cpu time    0.2262: real time    0.2270
    TRIAL :  cpu time   15.4954: real time   15.6139
    CORREC:  cpu time    7.0958: real time    7.1552
    CHARGE:  cpu time    2.2969: real time    2.3131
    --------------------------------------------
      LOOP:  cpu time   26.6001: real time   26.8060

 eigenvalue-minimisations  :     0
 total energy-change (2. order) :-0.3015128E-05  (-0.7512828E-06)
 number of electron     216.0000000 magnetization 
 augmentation part       -0.5053239 magnetization 

 Free energy of the ion-electron system (eV)
  ---------------------------------------------------
  alpha Z        PSCENC =        59.93625244
  Ewald energy   TEWEN  =     34106.83082198
  -Hartree energ DENC   =    -41161.23292006
  -exchange      EXHF   =         0.00000000
  -V(xc)+E(xc)   XCENC  =       647.53628557
  PAW double counting   =    146945.08806915  -146804.83252166
  entropy T*S    EENTRO =        -0.00000000
  eigenvalues    EBANDS =     -2693.99932926
  atomic energy  EATOM  =      8369.52358910
  ---------------------------------------------------
  free energy    TOTEN  =      -531.14975274 eV

  energy without entropy =     -531.14975274  energy(sigma->0) =     -531.14975274


--------------------------------------------------------------------------------------------------------




--------------------------------------- Iteration      1(  21)  ---------------------------------------


    POTLOK:  cpu time    1.4479: real time    1.4558
    SETDIJ:  cpu time    0.2267: real time    0.2274
    TRIAL :  cpu time   15.4702: real time   15.5829
    CORREC:  cpu time    7.1115: real time    7.1630
    CHARGE:  cpu time    2.2799: real time    2.2963
    --------------------------------------------
      LOOP:  cpu time   26.5590: real time   26.7575

 eigenvalue-minimisations  :     0
 total energy-change (2. order) :-0.7400231E-06  (-0.3730871E-06)
 number of electron     216.0000000 magnetization 
 augmentation part       -0.5053220 magnetization 

 Free energy of the ion-electron system (eV)
  ---------------------------------------------------
  alpha Z        PSCENC =        59.93625244
  Ewald energy   TEWEN  =     34106.83082198
  -Hartree energ DENC   =    -41161.23229429
  -exchange      EXHF   =         0.00000000
  -V(xc)+E(xc)   XCENC  =       647.53591802
  PAW double counting   =    146948.32742578  -146808.07178945
  entropy T*S    EENTRO =        -0.00000000
  eigenvalues    EBANDS =     -2693.99967706
  atomic energy  EATOM  =      8369.52358910
  ---------------------------------------------------
  free energy    TOTEN  =      -531.14975348 eV

  energy without entropy =     -531.14975348  energy(sigma->0) =     -531.14975348


--------------------------------------------------------------------------------------------------------




--------------------------------------- Iteration      1(  22)  ---------------------------------------


    POTLOK:  cpu time    1.4587: real time    1.4667
    SETDIJ:  cpu time    0.2171: real time    0.2178
    TRIAL :  cpu time   15.4780: real time   15.5913
    CORREC:  cpu time    7.1260: real time    7.1742
    CHARGE:  cpu time    2.2724: real time    2.3054
    --------------------------------------------
      LOOP:  cpu time   26.6093: real time   26.8411

 eigenvalue-minimisations  :     0
 total energy-change (2. order) :-0.3342284E-06  (-0.1656105E-06)
 number of electron     216.0000000 magnetization 
 augmentation part       -0.5053168 magnetization 

 Free energy of the ion-electron system (eV)
  ---------------------------------------------------
  alpha Z        PSCENC =        59.93625244
  Ewald energy   TEWEN  =     34106.83082198
  -Hartree energ DENC   =    -41161.22800192
  -exchange      EXHF   =         0.00000000
  -V(xc)+E(xc)   XCENC  =       647.53565252
  PAW double counting   =    146948.94081649  -146808.68519260
  entropy T*S    EENTRO =        -0.00000000
  eigenvalues    EBANDS =     -2694.00369182
  atomic energy  EATOM  =      8369.52358910
  ---------------------------------------------------
  free energy    TOTEN  =      -531.14975381 eV

  energy without entropy =     -531.14975381  energy(sigma->0) =     -531.14975381


--------------------------------------------------------------------------------------------------------




--------------------------------------- Iteration      1(  23)  ---------------------------------------


    POTLOK:  cpu time    1.4461: real time    1.4560
    SETDIJ:  cpu time    0.2274: real time    0.2281
    TRIAL :  cpu time   15.4586: real time   15.6127
    CORREC:  cpu time    7.1062: real time    7.1631
    CHARGE:  cpu time    2.2811: real time    2.2967
    --------------------------------------------
      LOOP:  cpu time   26.5224: real time   26.7756

 eigenvalue-minimisations  :     0
 total energy-change (2. order) :-0.1403096E-06  (-0.6590173E-07)
 number of electron     216.0000000 magnetization 
 augmentation part       -0.5053134 magnetization 

 Free energy of the ion-electron system (eV)
  ---------------------------------------------------
  alpha Z        PSCENC =        59.93625244
  Ewald energy   TEWEN  =     34106.83082198
  -Hartree energ DENC   =    -41161.22562271
  -exchange      EXHF   =         0.00000000
  -V(xc)+E(xc)   XCENC  =       647.53559913
  PAW double counting   =    146948.83247100  -146808.57690604
  entropy T*S    EENTRO =        -0.00000000
  eigenvalues    EBANDS =     -2694.00595885
  atomic energy  EATOM  =      8369.52358910
  ---------------------------------------------------
  free energy    TOTEN  =      -531.14975395 eV

  energy without entropy =     -531.14975395  energy(sigma->0) =     -531.14975395


--------------------------------------------------------------------------------------------------------




--------------------------------------- Iteration      1(  24)  ---------------------------------------


    POTLOK:  cpu time    1.4409: real time    1.4716
    SETDIJ:  cpu time    0.2127: real time    0.2135
    TRIAL :  cpu time   15.4871: real time   15.6043
    CORREC:  cpu time    7.1212: real time    7.1705
    EDDIAG:  cpu time    3.1937: real time    3.2174
    CHARGE:  cpu time    2.2826: real time    2.2985
    --------------------------------------------
      LOOP:  cpu time   29.7704: real time   30.0087

 eigenvalue-minimisations  :     0
 total energy-change (2. order) :-0.3760215E-07  (-0.2250548E-07)
 number of electron     216.0000000 magnetization 
 augmentation part       -0.5053134 magnetization 

 Free energy of the ion-electron system (eV)
  ---------------------------------------------------
  alpha Z        PSCENC =        59.93625244
  Ewald energy   TEWEN  =     34106.83082198
  -Hartree energ DENC   =    -41161.22382724
  -exchange      EXHF   =         0.00000000
  -V(xc)+E(xc)   XCENC  =       647.53556964
  PAW double counting   =    146948.69986738  -146808.44434295
  entropy T*S    EENTRO =        -0.00000000
  eigenvalues    EBANDS =     -2694.00768434
  atomic energy  EATOM  =      8369.52358910
  ---------------------------------------------------
  free energy    TOTEN  =      -531.14975399 eV

  energy without entropy =     -531.14975399  energy(sigma->0) =     -531.14975399


--------------------------------------------------------------------------------------------------------


  average scaling for gradient   0.8490


 average (electrostatic) potential at core
  the test charge radii are     0.5770  0.5955
  (the norm of the test charge is              1.0000)
       1 -87.7315       2 -87.7255       3 -87.7372       4 -87.7450       5 -87.7205
       6 -87.7159       7 -87.7326       8 -87.7165       9 -87.7208      10 -87.7281
      11 -87.7172      12 -87.7225      13 -87.7258      14 -87.7161      15 -87.7146
      16 -87.7175      17 -87.7230      18 -87.7272      19 -87.7273      20 -87.7218
      21 -87.7138      22 -87.7115      23 -87.7443      24 -87.7413      25 -87.7186
      26 -87.7200      27 -87.7185      28 -87.7315      29 -87.7175      30 -87.7151
      31 -87.7367      32 -87.7290      33 -87.7249      34 -87.7208      35 -87.7154
      36 -87.7215      37 -87.7199      38 -87.7270      39 -87.7267      40 -87.7271
      41 -87.7287      42 -87.7318      43 -87.7239      44 -87.7304      45 -87.7180
      46 -87.7162      47 -87.7226      48 -87.7190      49 -87.7275      50 -87.7257
      51 -91.7956      52-123.9183      53-123.9257
 
 
 
 E-fermi :  -4.0751     XC(G=0):  -2.3215     alpha+bet : -2.1113

 Fermi energy:        -4.0750846405

 k-point     1 :       0.0000    0.0000    0.0000
  band No.  band energies     occupation 
      1     -28.8503      2.00000
      2     -27.8255      2.00000
      3     -23.2323      2.00000
      4     -22.2541      2.00000
      5     -22.2500      2.00000
      6     -22.2442      2.00000
      7     -22.2442      2.00000
      8     -22.2410      2.00000
      9     -22.2395      2.00000
     10     -20.3175      2.00000
     11     -20.3167      2.00000
     12     -20.3127      2.00000
     13     -20.3122      2.00000
     14     -20.3110      2.00000
     15     -20.3109      2.00000
     16     -19.3805      2.00000
     17     -19.3796      2.00000
     18     -19.3785      2.00000
     19     -19.3767      2.00000
     20     -19.3764      2.00000
     21     -19.3761      2.00000
     22     -17.1607      2.00000
     23     -17.1598      2.00000
     24     -17.1577      2.00000
     25     -17.1572      2.00000
     26     -17.1537      2.00000
     27     -17.1534      2.00000
     28     -16.0006      2.00000
     29     -16.0001      2.00000
     30     -15.9972      2.00000
     31     -15.9971      2.00000
     32     -15.9963      2.00000
     33     -15.9960      2.00000
     34     -14.6067      2.00000
     35     -14.6066      2.00000
     36     -14.6064      2.00000
     37     -14.6048      2.00000
     38     -14.6047      2.00000
     39     -14.6034      2.00000
     40     -12.8125      2.00000
     41     -12.1484      2.00000
     42     -12.1484      2.00000
     43     -12.1464      2.00000
     44     -12.1463      2.00000
     45     -12.1460      2.00000
     46     -12.1458      2.00000
     47     -11.9312      2.00000
     48     -11.9308      2.00000
     49     -11.9284      2.00000
     50     -11.9284      2.00000
     51     -11.9253      2.00000
     52     -11.9250      2.00000
     53     -11.5381      2.00000
     54     -11.3204      2.00000
     55     -11.2758      2.00000
     56     -10.5752      2.00000
     57     -10.4826      2.00000
     58     -10.4825      2.00000
     59     -10.4822      2.00000
     60     -10.4820      2.00000
     61     -10.4808      2.00000
     62     -10.4807      2.00000
     63      -9.4244      2.00000
     64      -9.4175      2.00000
     65      -9.4172      2.00000
     66      -9.4127      2.00000
     67      -9.4114      2.00000
     68      -9.4067      2.00000
     69      -9.1858      2.00000
     70      -9.1838      2.00000
     71      -9.1832      2.00000
     72      -9.1822      2.00000
     73      -9.1818      2.00000
     74      -9.1809      2.00000
     75      -9.1800      2.00000
     76      -9.1797      2.00000
     77      -9.1794      2.00000
     78      -9.1783      2.00000
     79      -9.1776      2.00000
     80      -9.1762      2.00000
     81      -7.7132      2.00000
     82      -7.6851      2.00000
     83      -7.4773      2.00000
     84      -7.4766      2.00000
     85      -7.4758      2.00000
     86      -7.4739      2.00000
     87      -7.4707      2.00000
     88      -7.4702      2.00000
     89      -7.1845      2.00000
     90      -7.1834      2.00000
     91      -7.1735      2.00000
     92      -7.1728      2.00000
     93      -7.1716      2.00000
     94      -7.1430      2.00000
     95      -6.2407      2.00000
     96      -6.2375      2.00000
     97      -6.2336      2.00000
     98      -6.2288      2.00000
     99      -6.2277      2.00000
    100      -6.2185      2.00000
    101      -5.9591      2.00000
    102      -5.9567      2.00000
    103      -4.1434      2.00000
    104      -4.1403      2.00000
    105      -4.1367      2.00000
    106      -4.1353      2.00000
    107      -4.1304      2.00000
    108      -4.1298      2.00000
    109      -1.1693      0.00000
    110      -1.1683      0.00000
    111      -1.1597      0.00000
    112      -1.1585      0.00000
    113      -1.1565      0.00000
    114      -1.1554      0.00000
    115       0.8079      0.00000
    116       0.8110      0.00000
    117       0.8140      0.00000
    118       0.8213      0.00000
    119       0.8226      0.00000
    120       0.8253      0.00000
    121       0.8799      0.00000
    122       1.5394      0.00000
    123       1.5841      0.00000
    124       1.5864      0.00000
    125       1.9485      0.00000
    126       2.0353      0.00000
    127       2.2709      0.00000
    128       2.3314      0.00000
    129       2.3374      0.00000
    130       2.3412      0.00000
    131       2.4066      0.00000
    132       2.6894      0.00000
    133       2.6916      0.00000
    134       2.6993      0.00000
    135       2.7010      0.00000
    136       2.7018      0.00000
    137       2.7052      0.00000
    138       2.8168      0.00000
    139       2.9416      0.00000
    140       3.0241      0.00000
    141       3.1051      0.00000
    142       3.1168      0.00000
    143       3.1176      0.00000
    144       3.1534      0.00000
    145       3.2562      0.00000
    146       3.2972      0.00000
    147       3.3160      0.00000
    148       3.3675      0.00000
    149       3.3924      0.00000
    150       3.4922      0.00000
    151       3.7348      0.00000
    152       4.6215      0.00000
    153       4.6855      0.00000
    154       4.7882      0.00000
    155       4.8854      0.00000
    156       4.9883      0.00000
    157       5.2972      0.00000
    158       5.2988      0.00000
    159       5.3027      0.00000
    160       5.3037      0.00000
    161       5.3056      0.00000
    162       5.3081      0.00000
    163       5.3334      0.00000
    164       5.5007      0.00000
    165       5.6082      0.00000
    166       5.6608      0.00000
    167       5.7241      0.00000
    168       5.8002      0.00000


--------------------------------------------------------------------------------------------------------


 soft charge-density along one line, spin component           1
         0         1         2         3         4         5         6         7         8         9
 total charge-density along one line
 
 pseudopotential strength for first ion, spin component:           1
 12.630  21.251  -0.000   0.000   0.000  -0.000   0.000   0.000
 21.251  35.755  -0.000   0.000   0.000  -0.000   0.000   0.000
 -0.000  -0.000  -3.234   0.000   0.000  -5.794   0.000   0.000
  0.000   0.000   0.000  -3.238   0.000   0.000  -5.800   0.000
  0.000   0.000   0.000   0.000  -3.234   0.000   0.000  -5.794
 -0.000  -0.000  -5.794   0.000   0.000 -10.358   0.000   0.000
  0.000   0.000   0.000  -5.800   0.000   0.000 -10.368   0.000
  0.000   0.000   0.000   0.000  -5.794   0.000   0.000 -10.358
 total augmentation occupancy for first ion, spin component:           1
  9.642  -3.598   0.000  -0.002  -0.000  -0.000   0.001   0.000
 -3.598   1.374  -0.000   0.001   0.000   0.000  -0.000  -0.000
  0.000  -0.000   8.197  -0.009   0.001  -2.895   0.004  -0.000
 -0.002   0.001  -0.009   3.783  -0.000   0.004  -1.106  -0.000
 -0.000   0.000   0.001  -0.000   8.196  -0.000  -0.000  -2.895
 -0.000   0.000  -2.895   0.004  -0.000   1.036  -0.001   0.000
  0.001  -0.000   0.004  -1.106  -0.000  -0.001   0.329   0.000
  0.000  -0.000  -0.000  -0.000  -2.895   0.000   0.000   1.035


------------------------ aborting loop because EDIFF is reached ----------------------------------------


    FORLOC:  cpu time    0.1046: real time    0.1053
    FORNL :  cpu time    2.9038: real time    2.9318
    FORCOR:  cpu time    1.4982: real time    1.5061
    OFIELD:  cpu time    0.0024: real time    0.0025

 VOLUME and BASIS-vectors are now :
 -----------------------------------------------------------------------------
  energy-cutoff  :     1000.00
  volume of cell :     2631.08
      direct lattice vectors                 reciprocal lattice vectors
    12.325000000  0.000000000  0.000000000     0.081135903  0.046843835  0.000000000
    -6.162500000 10.673763102  0.000000000     0.000000000  0.093687670  0.000000000
     0.000000000  0.000000000 20.000000000     0.000000000  0.000000000  0.050000000

  length of vectors
    12.325000000 12.325000000 20.000000000     0.093687670  0.093687670  0.050000000


 FORCES acting on ions:
    Electron-Ion                     Ewald-Force                    Non-Local-Force
 -----------------------------------------------------------------------------------------------
   0.103E+02 0.901E+01 0.228E+02   -.103E+02 -.901E+01 -.228E+02   0.521E-02 0.160E-02 0.944E-02
   0.167E+02 0.823E+01 0.300E+02   -.167E+02 -.823E+01 -.300E+02   0.141E-01 0.327E-02 -.105E-01
   0.812E+01 0.209E+02 0.372E+02   -.812E+01 -.209E+02 -.373E+02   0.782E-02 0.496E-01 0.266E-01
   0.126E+02 0.185E+02 0.591E+02   -.127E+02 -.185E+02 -.592E+02   0.553E-01 0.343E-01 0.828E-01
   0.112E+02 0.263E+01 0.228E+02   -.112E+02 -.263E+01 -.228E+02   -.745E-02 -.216E-02 -.552E-02
   0.117E+02 -.203E+01 0.234E+02   -.117E+02 0.203E+01 -.233E+02   -.224E-01 0.812E-02 -.160E-01
   0.219E+02 0.876E+01 0.509E+02   -.219E+02 -.872E+01 -.509E+02   0.514E-01 -.397E-01 0.196E-02
   0.215E+02 -.735E+01 0.539E+02   -.215E+02 0.737E+01 -.539E+02   0.115E-01 -.152E-01 -.704E-01
   -.910E+01 0.192E+02 0.381E+02   0.911E+01 -.192E+02 -.381E+02   -.291E-02 0.786E-03 -.325E-01
   -.162E+02 0.138E+02 0.572E+02   0.163E+02 -.139E+02 -.571E+02   -.574E-01 0.498E-01 -.371E-01
   0.276E+01 -.246E+01 0.182E+02   -.274E+01 0.245E+01 -.182E+02   -.598E-02 0.163E-02 -.427E-02
   0.221E+01 -.179E+01 0.168E+02   -.221E+01 0.180E+01 -.168E+02   -.740E-02 -.389E-02 0.360E-02
   0.835E+01 -.196E+02 0.614E+02   -.843E+01 0.196E+02 -.614E+02   0.854E-01 -.194E-01 -.441E-01
   0.395E+01 -.210E+02 0.380E+02   -.397E+01 0.210E+02 -.379E+02   0.235E-01 -.162E-02 -.345E-01
   -.997E+01 0.626E+01 0.223E+02   0.997E+01 -.626E+01 -.223E+02   0.133E-01 -.463E-02 -.630E-02
   -.147E+02 0.416E+01 0.262E+02   0.147E+02 -.417E+01 -.262E+02   -.415E-02 0.135E-01 -.286E-01
   -.152E+01 -.606E+00 0.161E+02   0.153E+01 0.616E+00 -.161E+02   0.940E-03 -.175E-01 0.213E-02
   0.819E+00 0.557E+01 0.173E+02   -.819E+00 -.556E+01 -.173E+02   0.818E-03 -.982E-02 0.951E-02
   -.301E+01 -.176E+02 0.286E+02   0.299E+01 0.176E+02 -.286E+02   0.178E-01 -.157E-01 0.437E-02
   -.130E+01 -.859E+01 0.193E+02   0.130E+01 0.860E+01 -.193E+02   -.979E-02 -.150E-01 -.159E-03
   0.172E+02 -.752E+01 0.325E+02   -.172E+02 0.751E+01 -.324E+02   -.528E-02 0.257E-02 -.508E-01
   0.103E+02 -.890E+01 0.251E+02   -.103E+02 0.888E+01 -.251E+02   -.101E-01 0.160E-01 -.155E-01
   -.414E+01 0.902E+01 0.748E+02   0.419E+01 -.908E+01 -.749E+02   -.446E-01 0.577E-01 0.104E+00
   -.697E+01 -.143E+02 0.709E+02   0.693E+01 0.144E+02 -.710E+02   0.425E-01 -.509E-01 0.899E-01
   0.483E+01 -.211E+01 0.183E+02   -.482E+01 0.211E+01 -.183E+02   -.205E-02 -.623E-02 -.107E-01
   0.898E+00 0.433E+01 0.185E+02   -.902E+00 -.433E+01 -.185E+02   0.300E-02 -.203E-02 0.151E-02
   -.220E+02 0.262E+01 0.422E+02   0.220E+02 -.265E+01 -.422E+02   0.923E-03 0.310E-01 -.279E-01
   -.202E+02 -.858E+01 0.380E+02   0.203E+02 0.856E+01 -.380E+02   -.369E-01 0.281E-01 0.963E-02
   0.628E+01 -.128E+02 0.264E+02   -.629E+01 0.128E+02 -.264E+02   0.121E-01 0.691E-02 -.267E-01
   0.584E+00 -.479E+01 0.196E+02   -.594E+00 0.479E+01 -.196E+02   0.739E-03 0.480E-02 -.524E-02
   -.163E+02 -.175E+02 0.472E+02   0.164E+02 0.176E+02 -.473E+02   -.424E-01 -.294E-01 0.509E-01
   -.941E+01 -.172E+02 0.307E+02   0.942E+01 0.172E+02 -.308E+02   -.779E-02 -.368E-01 0.175E-01
   0.585E+00 0.233E+01 0.167E+02   -.578E+00 -.234E+01 -.167E+02   -.672E-02 -.364E-02 0.584E-02
   0.162E+01 0.236E+01 0.181E+02   -.162E+01 -.235E+01 -.181E+02   -.125E-01 0.580E-02 -.601E-02
   -.696E+01 0.879E+00 0.200E+02   0.696E+01 -.890E+00 -.200E+02   0.753E-03 0.670E-02 0.197E-02
   -.600E+01 -.241E+01 0.194E+02   0.600E+01 0.240E+01 -.194E+02   -.117E-01 0.744E-02 -.421E-02
   -.122E+02 -.634E+01 0.233E+02   0.122E+02 0.634E+01 -.233E+02   -.163E-01 -.699E-02 0.436E-02
   -.708E+01 -.572E+01 0.191E+02   0.708E+01 0.573E+01 -.191E+02   -.106E-01 -.130E-01 0.109E-01
   -.663E+01 -.865E+01 0.206E+02   0.664E+01 0.867E+01 -.206E+02   -.165E-01 -.255E-01 0.861E-02
   -.972E+00 -.206E+01 0.173E+02   0.977E+00 0.207E+01 -.173E+02   -.584E-02 -.160E-01 0.890E-02
   0.249E+01 0.599E+01 0.181E+02   -.249E+01 -.599E+01 -.181E+02   -.344E-02 -.139E-02 0.767E-02
   0.824E+01 0.129E+02 0.244E+02   -.825E+01 -.129E+02 -.244E+02   0.112E-01 0.119E-01 0.121E-01
   0.652E+00 0.106E+02 0.204E+02   -.651E+00 -.106E+02 -.204E+02   0.772E-02 0.115E-02 -.162E-02
   0.593E-01 0.196E+02 0.317E+02   -.416E-01 -.197E+02 -.317E+02   -.156E-01 0.127E-01 0.625E-02
   -.202E+01 0.400E+01 0.196E+02   0.202E+01 -.399E+01 -.196E+02   0.111E-01 -.841E-02 -.758E-02
   -.846E+01 0.107E+02 0.250E+02   0.846E+01 -.107E+02 -.250E+02   0.125E-03 -.172E-02 -.207E-01
   -.146E+01 -.410E+01 0.179E+02   0.146E+01 0.410E+01 -.179E+02   0.318E-02 -.424E-02 0.171E-02
   -.379E+01 0.154E+01 0.172E+02   0.378E+01 -.153E+01 -.171E+02   -.549E-02 -.137E-02 -.818E-02
   0.314E+00 -.254E+01 0.169E+02   -.308E+00 0.255E+01 -.169E+02   -.675E-02 -.121E-01 0.697E-02
   0.403E+01 0.295E+01 0.171E+02   -.403E+01 -.295E+01 -.171E+02   -.105E-01 0.309E-02 0.357E-02
   0.134E+00 -.974E-01 -.366E+03   -.117E+00 0.838E-01 0.366E+03   -.225E-01 0.178E-01 -.501E-01
   -.228E+03 0.155E+03 -.561E+03   0.279E+03 -.190E+03 0.564E+03   -.526E+02 0.358E+02 -.339E+01
   0.228E+03 -.155E+03 -.540E+03   -.279E+03 0.190E+03 0.537E+03   0.526E+02 -.358E+02 0.331E+01
 -----------------------------------------------------------------------------------------------
   0.188E-01 0.509E-02 0.137E+00   -.568E-13 0.568E-13 0.114E-12   -.435E-01 0.120E-01 -.111E+00
 
 
 POSITION                                       TOTAL-FORCE (eV/Angst)
 -----------------------------------------------------------------------------------
     11.98348      0.00342      0.01417        -0.007539      0.008060     -0.004158
     -0.34154      1.42665      0.01100        -0.013837      0.018848     -0.002544
      2.12355      0.00315      0.01249         0.012776      0.001335     -0.002553
      2.12326      1.42653      0.00641         0.011522      0.017674      0.009391
     10.75099      2.13819      0.01213        -0.007029      0.018267      0.000488
     -1.57382      3.56123      0.01110        -0.022056      0.015633     -0.000373
      0.89078      2.13854      0.00548        -0.002389      0.027602      0.005973
      0.89099      3.56147      0.00181        -0.007870      0.017446      0.004945
      4.58864      0.00346      0.01135         0.029087     -0.006018     -0.001053
      4.58894      1.42623      0.00646         0.025530      0.014826      0.005071
      9.51854      4.27281      0.01369         0.017887     -0.002491      0.000943
     -2.80632      5.69591      0.01434        -0.007323     -0.016813      0.001420
      2.12300      4.27302      0.00000        -0.003242      0.026404      0.006395
      2.12335      5.69594      0.00581         0.001539     -0.005745      0.002933
      7.05344      0.00333      0.01399         0.005392     -0.013048      0.001299
      7.05353      1.42635      0.01368        -0.004925      0.013370     -0.002907
      8.28610      6.40752      0.01601         0.019796     -0.022426     -0.000975
     -4.03885      7.83070      0.01636         0.007566     -0.017818     -0.001721
      3.35586      6.40753      0.01007        -0.017675     -0.011120     -0.000524
      3.35599      7.83072      0.01320        -0.017793     -0.008198     -0.000055
     -0.34146      4.27290      0.00723         0.009303      0.015827     -0.000947
     -0.34138      5.69591      0.00946        -0.010184      0.000803      0.003732
      3.35624      2.13791      0.00222         0.011574      0.018037      0.018974
      3.35573      3.56155      0.00139         0.016853      0.008718      0.017412
     -1.57395      6.40758      0.01311         0.030069     -0.014897     -0.000756
     -1.57385      7.83068      0.01438         0.010632     -0.002629      0.000361
      5.82093      2.13784      0.01033         0.011207     -0.001897      0.001840
      5.82114      3.56097      0.01156         0.007153     -0.005450     -0.000384
      0.89092      6.40755      0.00907         0.003362     -0.001852     -0.000693
      0.89106      7.83068      0.01235        -0.008972      0.005074      0.002959
      4.58871      4.27293      0.00850        -0.007371      0.001886      0.003383
      4.58852      5.69606      0.01149         0.000821     -0.015031     -0.001666
      9.51845      0.00337      0.01490        -0.017208     -0.007144     -0.000219
      9.51855      1.42644      0.01438        -0.030263      0.024021     -0.000255
      8.28593      2.13803      0.01453        -0.001025     -0.001583      0.002688
      8.28613      3.56115      0.01464        -0.012655     -0.004206     -0.000648
      7.05356      4.27269      0.01457         0.004895     -0.007993      0.001910
      7.05362      5.69588      0.01553        -0.001836     -0.030883     -0.000582
      5.82112      6.40755      0.01489        -0.014202     -0.018700     -0.001137
      5.82102      7.83073      0.01579        -0.006201     -0.019334     -0.001850
      7.05363      8.54227      0.01631        -0.001381     -0.012869     -0.001155
     -5.27149      9.96549      0.01495        -0.000156     -0.001916     -0.005517
     -2.80638      8.54234      0.01558         0.029209     -0.015415     -0.001563
     -2.80627      9.96553      0.01362         0.021204      0.004645     -0.003348
     -0.34149      8.54239      0.01378         0.024150     -0.013657      0.000062
     -0.34138      9.96550      0.01354         0.011242      0.013402      0.000431
      2.12343      8.54232      0.01336        -0.012476     -0.013740      0.000975
      2.12354      9.96544      0.01469        -0.027112      0.014741     -0.001693
      4.58846      8.54235      0.01505        -0.019429     -0.017886      0.000321
      4.58853      9.96550      0.01517        -0.025317      0.007710     -0.000778
      3.04930      2.68154      3.33710        -0.020495      0.012524     -0.033659
      4.02070      2.02068      3.40152        -1.639133      1.095985     -0.114582
      2.07767      3.34267      3.27764         1.644323     -1.092078      0.094393
 -----------------------------------------------------------------------------------
    total drift:                               -0.024702      0.017135      0.025551


--------------------------------------------------------------------------------------------------------



  FREE ENERGIE OF THE ION-ELECTRON SYSTEM (eV)
  ---------------------------------------------------
  free  energy   TOTEN  =      -531.14975399 eV

  energy  without entropy=     -531.14975399  energy(sigma->0) =     -531.14975399
 


--------------------------------------------------------------------------------------------------------


    POTLOK:  cpu time    1.6986: real time    1.7072


--------------------------------------------------------------------------------------------------------


 writing wavefunctions
     LOOP+:  cpu time  675.6153: real time  681.8886
    4ORBIT:  cpu time    0.0000: real time    0.0000

 total amount of memory used by VASP MPI-rank0   556209. kBytes
=======================================================================

   base      :      30000. kBytes
   nonl-proj :     184518. kBytes
   fftplans  :      31725. kBytes
   grid      :     282516. kBytes
   one-center:        162. kBytes
   wavefun   :      27288. kBytes
 
  
  
 General timing and accounting informations for this job:
 ========================================================
  
                  Total CPU time used (sec):      713.586
                            User time (sec):      694.255
                          System time (sec):       19.331
                         Elapsed time (sec):      722.050
  
                   Maximum memory used (kb):     1035484.
                   Average memory used (kb):          N/A
  
                          Minor page faults:       129576
                          Major page faults:           82
                 Voluntary context switches:         3702
