 vasp.6.2.1 16May21 (build Nov 06 2021 14:46:37) complex                        
  
 executed on             LinuxIFC date 2025.03.03  19:48:44
 running on  112 total cores
 distrk:  each k-point on   56 cores,    2 groups
 distr:  one band on NCORE=   1 cores,   56 groups


--------------------------------------------------------------------------------------------------------


 INCAR:
   ALGO = Conjugate
   KPAR = 2
   NCORE = 32
   ISMEAR = 0
   SIGMA = 0.01
   PREC = Accurate
   EDIFF = 1E-7
   ENCUT = 1000
   ISIF = 0
   METAGGA = SCAN
   LASPH = .TRUE.
   SYMPREC = 1E-7

 POTCAR:    PAW_PBE C_h 06Feb2004                 
 POTCAR:    PAW_PBE O_h 06Feb2004                 
 -----------------------------------------------------------------------------
|                                                                             |
|           W    W    AA    RRRRR   N    N  II  N    N   GGGG   !!!           |
|           W    W   A  A   R    R  NN   N  II  NN   N  G    G  !!!           |
|           W    W  A    A  R    R  N N  N  II  N N  N  G       !!!           |
|           W WW W  AAAAAA  RRRRR   N  N N  II  N  N N  G  GGG   !            |
|           WW  WW  A    A  R   R   N   NN  II  N   NN  G    G                |
|           W    W  A    A  R    R  N    N  II  N    N   GGGG   !!!           |
|                                                                             |
|     The value NCORE = 32 specified in the INCAR file was overwritten,       |
|     because it was not compatible with the 56 processes available:          |
|     NCORE = 1                                                               |
|     was used instead, please check that this makes sense for your           |
|     machine.                                                                |
|                                                                             |
 -----------------------------------------------------------------------------

 -----------------------------------------------------------------------------
|                                                                             |
|           W    W    AA    RRRRR   N    N  II  N    N   GGGG   !!!           |
|           W    W   A  A   R    R  NN   N  II  NN   N  G    G  !!!           |
|           W    W  A    A  R    R  N N  N  II  N N  N  G       !!!           |
|           W WW W  AAAAAA  RRRRR   N  N N  II  N  N N  G  GGG   !            |
|           WW  WW  A    A  R   R   N   NN  II  N   NN  G    G                |
|           W    W  A    A  R    R  N    N  II  N    N   GGGG   !!!           |
|                                                                             |
|     For optimal performance we recommend to set                             |
|       NCORE = 2 up to number-of-cores-per-socket                            |
|     NCORE specifies how many cores store one orbital (NPAR=cpu/NCORE).      |
|     This setting can greatly improve the performance of VASP for DFT.       |
|     The default, NCORE=1 might be grossly inefficient on modern             |
|     multi-core architectures or massively parallel machines. Do your        |
|     own testing! More info at https://www.vasp.at/wiki/index.php/NCORE      |
|     Unfortunately you need to use the default for GW and RPA                |
|     calculations (for HF NCORE is supported but not extensively tested      |
|     yet).                                                                   |
|                                                                             |
 -----------------------------------------------------------------------------

 POTCAR:    PAW_PBE C_h 06Feb2004                 
   VRHFIN =C: s2p2                                                                                  
   LEXCH  = PE                                                                                      
   EATOM  =   147.1560 eV,   10.8157 Ry                                                             
                                                                                                    
   TITEL  = PAW_PBE C_h 06Feb2004                                                                   
   LULTRA =        F    use ultrasoft PP ?                                                          
   IUNSCR =        1    unscreen: 0-lin 1-nonlin 2-no                                               
   RPACOR =    0.800    partial core radius                                                         
   POMASS =   12.011; ZVAL   =    4.000    mass and valenz                                          
   RCORE  =    1.100    outmost cutoff radius                                                       
   RWIGS  =    1.630; RWIGS  =    0.863    wigner-seitz radius (au A)                               
   ENMAX  =  700.000; ENMIN  =  500.000 eV                                                          
   ICORE  =        2    local potential                                                             
   LCOR   =        T    correct aug charges                                                         
   LPAW   =        T    paw PP                                                                      
   EAUG   =  946.768                                                                                
   DEXC   =    0.000                                                                                
   RMAX   =    1.128    core radius for proj-oper                                                   
   RAUG   =    1.300    factor for augmentation sphere                                              
   RDEP   =    1.162    radius for radial grids                                                     
   RDEPT  =    1.088    core radius for aug-charge                                                  
                                                                                                    
   Atomic configuration                                                                             
    4 entries                                                                                       
     n  l   j            E        occ.                                                              
     1  0  0.50      -273.3789   2.0000                                                             
     2  0  0.50       -13.7508   2.0000                                                             
     2  1  0.50        -5.2854   2.0000                                                             
     3  2  1.50        -5.4423   0.0000                                                             
   Description                                                                                      
     l       E           TYP  RCUT    TYP  RCUT                                                     
     0    -13.7508458     23  1.100                                                                 
     0     -8.2022199     23  1.100                                                                 
     1     -5.2854383     23  1.100                                                                 
     1      1.1560700     23  1.100                                                                 
     2     -5.4423304      7  1.100                                                                 
  local pseudopotential read in
  partial core-charges read in
  partial kinetic energy density read in
  atomic valenz-charges read in
  non local Contribution for L=           0  read in
    real space projection operators read in
  non local Contribution for L=           0  read in
    real space projection operators read in
  non local Contribution for L=           1  read in
    real space projection operators read in
  non local Contribution for L=           1  read in
    real space projection operators read in
    PAW grid and wavefunctions read in
 
   number of l-projection  operators is LMAX  =           4
   number of lm-projection operators is LMMAX =           8
 
 POTCAR:    PAW_PBE O_h 06Feb2004                 
   VRHFIN =O: s2p4                                                                                  
   LEXCH  = PE                                                                                      
   EATOM  =   432.3788 eV,   31.7789 Ry                                                             
                                                                                                    
   TITEL  = PAW_PBE O_h 06Feb2004                                                                   
   LULTRA =        F    use ultrasoft PP ?                                                          
   IUNSCR =        1    unscreen: 0-lin 1-nonlin 2-no                                               
   RPACOR =    0.800    partial core radius                                                         
   POMASS =   16.000; ZVAL   =    6.000    mass and valenz                                          
   RCORE  =    1.100    outmost cutoff radius                                                       
   RWIGS  =    1.400; RWIGS  =    0.741    wigner-seitz radius (au A)                               
   ENMAX  =  700.000; ENMIN  =  500.000 eV                                                          
   ICORE  =        2    local potential                                                             
   LCOR   =        T    correct aug charges                                                         
   LPAW   =        T    paw PP                                                                      
   EAUG   =  888.804                                                                                
   DEXC   =    0.000                                                                                
   RMAX   =    1.128    core radius for proj-oper                                                   
   RAUG   =    1.300    factor for augmentation sphere                                              
   RDEP   =    1.125    radius for radial grids                                                     
   RDEPT  =    1.088    core radius for aug-charge                                                  
                                                                                                    
   Atomic configuration                                                                             
    4 entries                                                                                       
     n  l   j            E        occ.                                                              
     1  0  0.50      -514.6923   2.0000                                                             
     2  0  0.50       -23.9615   2.0000                                                             
     2  1  0.50        -9.0305   4.0000                                                             
     3  2  1.50        -9.5241   0.0000                                                             
   Description                                                                                      
     l       E           TYP  RCUT    TYP  RCUT                                                     
     0    -23.9615319     23  1.100                                                                 
     0    -25.3221145     23  1.100                                                                 
     1     -9.0304911     23  1.100                                                                 
     1     -5.4802209     23  1.100                                                                 
     2     -9.5240782      7  1.100                                                                 
  local pseudopotential read in
  partial core-charges read in
  partial kinetic energy density read in
  atomic valenz-charges read in
  non local Contribution for L=           0  read in
    real space projection operators read in
  non local Contribution for L=           0  read in
    real space projection operators read in
  non local Contribution for L=           1  read in
    real space projection operators read in
  non local Contribution for L=           1  read in
    real space projection operators read in
    PAW grid and wavefunctions read in
 
   number of l-projection  operators is LMAX  =           4
   number of lm-projection operators is LMMAX =           8
 
 -----------------------------------------------------------------------------
|                                                                             |
|               ----> ADVICE to this user running VASP <----                  |
|                                                                             |
|     You have a (more or less) 'large supercell' and for larger cells it     |
|     might be more efficient to use real-space projection operators.         |
|     Therefore, try LREAL= Auto in the INCAR file.                           |
|     Mind: For very accurate calculation, you might also keep the            |
|     reciprocal projection scheme (i.e. LREAL=.FALSE.).                      |
|                                                                             |
 -----------------------------------------------------------------------------

  PAW_PBE C_h 06Feb2004                 :
 energy of atom  1       EATOM= -147.1560
 kinetic energy error for atom=    0.0031 (will be added to EATOM!!)
  PAW_PBE O_h 06Feb2004                 :
 energy of atom  2       EATOM= -432.3788
 kinetic energy error for atom=    0.0171 (will be added to EATOM!!)
 
 
 POSCAR:  C  O
  positions in cartesian coordinates
  No initial velocities read in

 METAGGA = SCAN     LMAXTAU =  6    LMIXTAU =  F

 exchange correlation table for  LEXCH =        8
   RHO(1)=    0.500       N(1)  =     2000
   RHO(2)=  100.500       N(2)  =     4000
 


--------------------------------------------------------------------------------------------------------


 ion  position               nearest neighbor table
   1  0.972  0.000  0.001-  50 1.42   2 1.42  42 1.42
   2  0.039  0.134  0.001-   5 1.42   7 1.42   1 1.42
   3  0.172  0.000  0.001-  42 1.42  44 1.42   4 1.42
   4  0.239  0.134  0.000-   7 1.42   3 1.42  23 1.42
   5  0.972  0.200  0.001-   6 1.42   2 1.42  34 1.42
   6  0.039  0.334  0.001-   5 1.42  21 1.42  11 1.42
   7  0.172  0.200  0.000-   8 1.42   2 1.42   4 1.42
   8  0.239  0.334  0.000-  13 1.42   7 1.42  21 1.42
   9  0.372  0.000  0.001-  10 1.42  44 1.42  46 1.42
  10  0.439  0.134  0.000-  27 1.42   9 1.42  23 1.42
  11  0.972  0.400  0.001-  12 1.42  36 1.42   6 1.42
  12  0.039  0.534  0.001-  25 1.42  11 1.42  17 1.42
  13  0.372  0.400  0.000-   8 1.42  14 1.42  24 1.42
  14  0.439  0.534  0.000-  13 1.42  29 1.42  19 1.42
  15  0.572  0.000  0.001-  46 1.42  16 1.42  48 1.42
  16  0.639  0.134  0.001-  15 1.42  35 1.42  27 1.42
  17  0.972  0.600  0.001-  38 1.42  18 1.42  12 1.42
  18  0.039  0.734  0.001-  43 1.42  41 1.42  17 1.42
  19  0.572  0.600  0.001-  14 1.42  20 1.42  32 1.42
  20  0.639  0.734  0.001-  49 1.42  19 1.42  47 1.42
  21  0.172  0.400  0.000-  22 1.42   8 1.42   6 1.42
  22  0.239  0.534  0.000-  21 1.42  29 1.42  25 1.42
  23  0.372  0.200  0.000-  10 1.42   4 1.42  24 1.42
  24  0.439  0.334  0.000-  13 1.42  31 1.42  23 1.42
  25  0.172  0.600  0.001-  26 1.42  12 1.42  22 1.42
  26  0.239  0.734  0.001-  25 1.42  45 1.42  43 1.42
  27  0.572  0.200  0.001-  10 1.42  28 1.42  16 1.42
  28  0.639  0.334  0.001-  27 1.42  37 1.42  31 1.42
  29  0.372  0.600  0.000-  22 1.42  14 1.42  30 1.42
  30  0.439  0.734  0.001-  47 1.42  29 1.42  45 1.42
  31  0.572  0.400  0.000-  32 1.42  28 1.42  24 1.42
  32  0.639  0.534  0.001-  31 1.42  39 1.42  19 1.42
  33  0.772  0.000  0.001-  34 1.42  48 1.42  50 1.42
  34  0.839  0.134  0.001-  33 1.42   5 1.42  35 1.42
  35  0.772  0.200  0.001-  36 1.42  16 1.42  34 1.42
  36  0.839  0.334  0.001-  35 1.42  11 1.42  37 1.42
  37  0.772  0.400  0.001-  28 1.42  38 1.42  36 1.42
  38  0.839  0.534  0.001-  17 1.42  37 1.42  39 1.42
  39  0.772  0.600  0.001-  40 1.42  38 1.42  32 1.42
  40  0.839  0.734  0.001-  39 1.42  49 1.42  41 1.42
  41  0.972  0.800  0.001-  18 1.42  42 1.42  40 1.42
  42  0.039  0.934  0.001-   3 1.42  41 1.42   1 1.42
  43  0.172  0.800  0.001-  18 1.42  44 1.42  26 1.42
  44  0.239  0.934  0.001-   9 1.42  43 1.42   3 1.42
  45  0.372  0.800  0.001-  26 1.42  46 1.42  30 1.42
  46  0.439  0.934  0.001-  15 1.42  45 1.42   9 1.42
  47  0.572  0.800  0.001-  30 1.42  48 1.42  20 1.42
  48  0.639  0.934  0.001-  47 1.42  33 1.42  15 1.42
  49  0.772  0.800  0.001-  50 1.42  20 1.42  40 1.42
  50  0.839  0.934  0.001-  49 1.42   1 1.42  33 1.42
  51  0.373  0.251  0.250-  52 1.18  53 1.18
  52  0.421  0.189  0.253-  51 1.18
  53  0.325  0.313  0.247-  51 1.18
 
  LATTYP: Found a hexagonal cell.
 ALAT       =    12.3250000000
 C/A-ratio  =     1.6227180527
  
  Lattice vectors:
  
 A1 = (  12.3250000000,   0.0000000000,   0.0000000000)
 A2 = (  -6.1625000000,  10.6737631016,   0.0000000000)
 A3 = (   0.0000000000,   0.0000000000,  20.0000000000)


Analysis of symmetry for initial positions (statically):
=====================================================================
 Subroutine PRICEL returns:
 Original cell was already a primitive cell.
 

 Routine SETGRP: Setting up the symmetry group for a 
 hexagonal supercell.


 Subroutine GETGRP returns: Found  1 space group operations
 (whereof  1 operations were pure point group operations)
 out of a pool of 24 trial point group operations.


The static configuration has the point symmetry C_1 .


Analysis of symmetry for dynamics (positions and initial velocities):
=====================================================================
 Subroutine PRICEL returns:
 Original cell was already a primitive cell.
 

 Routine SETGRP: Setting up the symmetry group for a 
 hexagonal supercell.


 Subroutine GETGRP returns: Found  1 space group operations
 (whereof  1 operations were pure point group operations)
 out of a pool of 24 trial point group operations.


The dynamic configuration has the point symmetry C_1 .


 Subroutine INISYM returns: Found  1 space group operations
 (whereof  1 operations are pure point group operations),
 and found     1 'primitive' translations


----------------------------------------------------------------------------------------

                                     Primitive cell                                     

  volume of cell :    2631.0826

  direct lattice vectors                    reciprocal lattice vectors
    12.325000000  0.000000000  0.000000000     0.081135903  0.046843835  0.000000000
    -6.162500000 10.673763102  0.000000000     0.000000000  0.093687670  0.000000000
     0.000000000  0.000000000 20.000000000     0.000000000  0.000000000  0.050000000

  length of vectors
    12.325000000 12.325000000 20.000000000     0.093687670  0.093687670  0.050000000

  position of ions in fractional coordinates (direct lattice)
     0.972450841  0.000320818  0.000708389
     0.039118382  0.133659505  0.000550216
     0.172443627  0.000295449  0.000624535
     0.239096278  0.133647917  0.000320585
     0.972452058  0.200322012  0.000606523
     0.039128360  0.333643771  0.000555187
     0.172451764  0.200354552  0.000273959
     0.239124359  0.333665720  0.000090325
     0.372465565  0.000324403  0.000567391
     0.439137473  0.133619939  0.000322923
     0.972449824  0.400309362  0.000684513
     0.039124981  0.533636789  0.000716763
     0.372416176  0.400329481  0.000000000
     0.439099602  0.533638981  0.000290518
     0.572443676  0.000312125  0.000699475
     0.639110207  0.133631751  0.000684093
     0.972452703  0.600305653  0.000800361
     0.039124495  0.733640359  0.000818141
     0.572433471  0.600306242  0.000503618
     0.639111888  0.733641879  0.000659881
     0.172454630  0.400318228  0.000361306
     0.239120185  0.533636548  0.000473136
     0.372459750  0.200295993  0.000111246
     0.439107096  0.333673419  0.000069702
     0.172452155  0.600311506  0.000655425
     0.239123371  0.733638574  0.000718912
     0.572431082  0.200289171  0.000516621
     0.639112773  0.333618630  0.000577970
     0.372439808  0.600308022  0.000453556
     0.439116090  0.733637858  0.000617737
     0.572469358  0.400320504  0.000424897
     0.639119408  0.533650873  0.000574513
     0.772445723  0.000315427  0.000745201
     0.839116277  0.133640203  0.000719132
     0.772440513  0.200307432  0.000726291
     0.839120241  0.333635728  0.000731834
     0.772446320  0.400298367  0.000728722
     0.839118980  0.533633964  0.000776376
     0.772456143  0.600308173  0.000744639
     0.839115033  0.733643180  0.000789390
     0.972455313  0.800305582  0.000815291
     0.039114714  0.933643289  0.000747563
     0.172457971  0.800312211  0.000779216
     0.239134551  0.933647193  0.000681063
     0.372451396  0.800316674  0.000689249
     0.439124489  0.933644769  0.000676788
     0.572441101  0.800310054  0.000668168
     0.639115067  0.933638985  0.000734556
     0.772445098  0.800313187  0.000752577
     0.839116614  0.933644338  0.000758538
     0.373021009  0.251226878  0.250000000
     0.420879805  0.189313152  0.253221093
     0.325156981  0.313167186  0.247027256

  ion indices of the primitive-cell ions
   primitive index   ion index
                 1           1
                 2           2
                 3           3
                 4           4
                 5           5
                 6           6
                 7           7
                 8           8
                 9           9
                10          10
                11          11
                12          12
                13          13
                14          14
                15          15
                16          16
                17          17
                18          18
                19          19
                20          20
                21          21
                22          22
                23          23
                24          24
                25          25
                26          26
                27          27
                28          28
                29          29
                30          30
                31          31
                32          32
                33          33
                34          34
                35          35
                36          36
                37          37
                38          38
                39          39
                40          40
                41          41
                42          42
                43          43
                44          44
                45          45
                46          46
                47          47
                48          48
                49          49
                50          50
                51          51
                52          52
                53          53

----------------------------------------------------------------------------------------

 
 
 KPOINTS: auto                                    

Automatic generation of k-mesh.
 Grid dimensions read from file:
 generate k-points for:    1    1    1

 Generating k-lattice:

  Cartesian coordinates                     Fractional coordinates (reciprocal lattice)
     0.081135903  0.046843835  0.000000000     1.000000000 -0.000000000  0.000000000
     0.000000000  0.093687670  0.000000000     0.000000000  1.000000000  0.000000000
     0.000000000  0.000000000  0.050000000     0.000000000  0.000000000  1.000000000

  Length of vectors
     0.093687670  0.093687670  0.050000000

  Shift w.r.t. Gamma in fractional coordinates (k-lattice)
     0.000000000  0.000000000  0.000000000

 
 Subroutine IBZKPT returns following result:
 ===========================================
 
 Found      1 irreducible k-points:
 
 Following reciprocal coordinates:
            Coordinates               Weight
  0.000000  0.000000  0.000000      1.000000
 
 Following cartesian coordinates:
            Coordinates               Weight
  0.000000  0.000000  0.000000      1.000000
 


--------------------------------------------------------------------------------------------------------




 Dimension of arrays:
   k-points           NKPTS =      1   k-points in BZ     NKDIM =      1   number of bands    NBANDS=    168
   number of dos      NEDOS =    301   number of ions     NIONS =     53
   non local maximal  LDIM  =      4   non local SUM 2l+1 LMDIM =      8
   total plane-waves  NPLWV = ******
   max r-space proj   IRMAX =      1   max aug-charges    IRDMAX=   9736
   dimension x,y,z NGX =   128 NGY =  128 NGZ =  210
   dimension x,y,z NGXF=   256 NGYF=  256 NGZF=  420
   support grid    NGXF=   256 NGYF=  256 NGZF=  420
   ions per type =              51   2
   NGX,Y,Z   is equivalent  to a cutoff of  17.27, 17.27, 17.46 a.u.
   NGXF,Y,Z  is equivalent  to a cutoff of  34.53, 34.53, 34.91 a.u.

 SYSTEM =  unknown system                          
 POSCAR =   C  O                                   

 Startparameter for this run:
   NWRITE =      2    write-flag & timer
   PREC   = accura    normal or accurate (medium, high low for compatibility)
   ISTART =      0    job   : 0-new  1-cont  2-samecut
   ICHARG =      2    charge: 1-file 2-atom 10-const
   ISPIN  =      1    spin polarized calculation?
   LNONCOLLINEAR =      F non collinear calculations
   LSORBIT =      F    spin-orbit coupling
   INIWAV =      1    electr: 0-lowe 1-rand  2-diag
   LASPH  =      T    aspherical Exc in radial PAW
 Electronic Relaxation 1
   ENCUT  = 1000.0 eV  73.50 Ry    8.57 a.u.  31.78 31.78 51.57*2*pi/ulx,y,z
   ENINI  = 1000.0     initial cutoff
   ENAUG  =  946.8 eV  augmentation charge cutoff
   NELM   =     60;   NELMIN=  2; NELMDL= -5     # of ELM steps 
   EDIFF  = 0.1E-06   stopping-criterion for ELM
   LREAL  =      F    real-space projection
   NLSPLINE    = F    spline interpolate recip. space projectors
   LCOMPAT=      F    compatible to vasp.4.4
   GGA_COMPAT  = T    GGA compatible to vasp.4.4-vasp.4.6
   LMAXPAW     = -100 max onsite density
   LMAXMIX     =    2 max onsite mixed and CHGCAR
   VOSKOWN=      0    Vosko Wilk Nusair interpolation
   ROPT   =    0.00000   0.00000
 Ionic relaxation
   EDIFFG = 0.1E-05   stopping-criterion for IOM
   NSW    =      0    number of steps for IOM
   NBLOCK =      1;   KBLOCK =      1    inner block; outer block 
   IBRION =     -1    ionic relax: 0-MD 1-quasi-New 2-CG
   NFREE  =      0    steps in history (QN), initial steepest desc. (CG)
   ISIF   =      0    stress and relaxation
   IWAVPR =     10    prediction:  0-non 1-charg 2-wave 3-comb
   ISYM   =      2    0-nonsym 1-usesym 2-fastsym
   LCORR  =      T    Harris-Foulkes like correction to forces

   POTIM  = 0.5000    time-step for ionic-motion
   TEIN   =    0.0    initial temperature
   TEBEG  =    0.0;   TEEND  =   0.0 temperature during run
   SMASS  =  -3.00    Nose mass-parameter (am)
   estimated Nose-frequenzy (Omega)   =  0.10E-29 period in steps = 0.13E+47 mass=  -0.347E-26a.u.
   SCALEE = 1.0000    scale energy and forces
   NPACO  =    256;   APACO  = 16.0  distance and # of slots for P.C.
   PSTRESS=    0.0 pullay stress

  Mass of Ions in am
   POMASS =  12.01 16.00
  Ionic Valenz
   ZVAL   =   4.00  6.00
  Atomic Wigner-Seitz radii
   RWIGS  =  -1.00 -1.00
  virtual crystal weights 
   VCA    =   1.00  1.00
   NELECT =     216.0000    total number of electrons
   NUPDOWN=      -1.0000    fix difference up-down

 DOS related values:
   EMIN   =  10.00;   EMAX   =-10.00  energy-range for DOS
   EFERMI =   0.00
   ISMEAR =     0;   SIGMA  =   0.01  broadening in eV -4-tet -1-fermi 0-gaus

 Electronic relaxation 2 (details)
   IALGO  =     58    algorithm
   LDIAG  =      T    sub-space diagonalisation (order eigenvalues)
   LSUBROT=      F    optimize rotation matrix (better conditioning)
   TURBO    =      0    0=normal 1=particle mesh
   IRESTART =      0    0=no restart 2=restart with 2 vectors
   NREBOOT  =      0    no. of reboots
   NMIN     =      0    reboot dimension
   EREF     =   0.00    reference energy to select bands
   IMIX   =      4    mixing-type and parameters
     AMIX     =   0.40;   BMIX     =  1.00
     AMIX_MAG =   1.60;   BMIX_MAG =  1.00
     AMIN     =   0.10
     WC   =   100.;   INIMIX=   1;  MIXPRE=   1;  MAXMIX= -45

 Intra band minimization:
   WEIMIN = 0.0000     energy-eigenvalue tresh-hold
   EBREAK =  0.15E-09  absolut break condition
   DEPER  =   0.30     relativ break condition  

   TIME   =   0.40     timestep for ELM

  volume/ion in A,a.u.               =      49.64       335.01
  Fermi-wavevector in a.u.,A,eV,Ry     =   0.711510  1.344560  6.887909  0.506247
  Thomas-Fermi vector in A             =   1.798641
 
 Write flags
   LWAVE        =      T    write WAVECAR
   LDOWNSAMPLE  =      F    k-point downsampling of WAVECAR
   LCHARG       =      T    write CHGCAR
   LVTOT        =      F    write LOCPOT, total local potential
   LVHAR        =      F    write LOCPOT, Hartree potential only
   LELF         =      F    write electronic localiz. function (ELF)
   LORBIT       =      0    0 simple, 1 ext, 2 COOP (PROOUT), +10 PAW based schemes


 Dipole corrections
   LMONO  =      F    monopole corrections only (constant potential shift)
   LDIPOL =      F    correct potential (dipole corrections)
   IDIPOL =      0    1-x, 2-y, 3-z, 4-all directions 
   EPSILON=  1.0000000 bulk dielectric constant

 Exchange correlation treatment:
   GGA     =    --    GGA type
   LEXCH   =     8    internal setting for exchange type
   VOSKOWN=      0    Vosko Wilk Nusair interpolation
   LHFCALC =     F    Hartree Fock is set to
   LHFONE  =     F    Hartree Fock one center treatment
   AEXX    =    0.0000 exact exchange contribution

 Linear response parameters
   LEPSILON=     F    determine dielectric tensor
   LRPA    =     F    only Hartree local field effects (RPA)
   LNABLA  =     F    use nabla operator in PAW spheres
   LVEL    =     F    velocity operator in full k-point grid
   LINTERFAST=   F  fast interpolation
   KINTER  =     0    interpolate to denser k-point grid
   CSHIFT  =0.1000    complex shift for real part using Kramers Kronig
   OMEGAMAX=  -1.0    maximum frequency
   DEG_THRESHOLD= 0.2000000E-02 threshold for treating states as degnerate
   RTIME   =   -0.100 relaxation time in fs
  (WPLASMAI=    0.000 imaginary part of plasma frequency in eV, 0.658/RTIME)
   DFIELD  = 0.0000000 0.0000000 0.0000000 field for delta impulse in time
 
 Orbital magnetization related:
   ORBITALMAG=     F  switch on orbital magnetization
   LCHIMAG   =     F  perturbation theory with respect to B field
   DQ        =  0.001000  dq finite difference perturbation B field
   LLRAUG    =     F  two centre corrections for induced B field



--------------------------------------------------------------------------------------------------------


 Static calculation
 charge density and potential will be updated during run
 non-spin polarized calculation
 Conjugate gradient for all bands (Freysoldt, et al. PRB 79, 241103 (2009))
 preconditioned conjugated gradient                                        
 perform sub-space diagonalisation
    before iterative eigenvector-optimisation
 modified Broyden-mixing scheme, WC =      100.0
 initial mixing is a Kerker type mixing with AMIX =  0.4000 and BMIX =      1.0000
 Hartree-type preconditioning will be used
 using additional bands           60
 reciprocal scheme for non local part
 use partial core corrections
 no Harris-corrections to forces 
 use gradient corrections 
 use of overlap-Matrix (Vanderbilt PP)
 Gauss-broadening in eV      SIGMA  =   0.01


--------------------------------------------------------------------------------------------------------


  energy-cutoff  :     1000.00
  volume of cell :     2631.08
      direct lattice vectors                 reciprocal lattice vectors
    12.325000000  0.000000000  0.000000000     0.081135903  0.046843835  0.000000000
    -6.162500000 10.673763102  0.000000000     0.000000000  0.093687670  0.000000000
     0.000000000  0.000000000 20.000000000     0.000000000  0.000000000  0.050000000

  length of vectors
    12.325000000 12.325000000 20.000000000     0.093687670  0.093687670  0.050000000


 
 k-points in units of 2pi/SCALE and weight: auto                                    
   0.00000000  0.00000000  0.00000000       1.000
 
 k-points in reciprocal lattice and weights: auto                                    
   0.00000000  0.00000000  0.00000000       1.000
 
 position of ions in fractional coordinates (direct lattice) 
   0.97245084  0.00032082  0.00070839
   0.03911838  0.13365950  0.00055022
   0.17244363  0.00029545  0.00062454
   0.23909628  0.13364792  0.00032058
   0.97245206  0.20032201  0.00060652
   0.03912836  0.33364377  0.00055519
   0.17245176  0.20035455  0.00027396
   0.23912436  0.33366572  0.00009033
   0.37246557  0.00032440  0.00056739
   0.43913747  0.13361994  0.00032292
   0.97244982  0.40030936  0.00068451
   0.03912498  0.53363679  0.00071676
   0.37241618  0.40032948  0.00000000
   0.43909960  0.53363898  0.00029052
   0.57244368  0.00031213  0.00069947
   0.63911021  0.13363175  0.00068409
   0.97245270  0.60030565  0.00080036
   0.03912449  0.73364036  0.00081814
   0.57243347  0.60030624  0.00050362
   0.63911189  0.73364188  0.00065988
   0.17245463  0.40031823  0.00036131
   0.23912018  0.53363655  0.00047314
   0.37245975  0.20029599  0.00011125
   0.43910710  0.33367342  0.00006970
   0.17245216  0.60031151  0.00065542
   0.23912337  0.73363857  0.00071891
   0.57243108  0.20028917  0.00051662
   0.63911277  0.33361863  0.00057797
   0.37243981  0.60030802  0.00045356
   0.43911609  0.73363786  0.00061774
   0.57246936  0.40032050  0.00042490
   0.63911941  0.53365087  0.00057451
   0.77244572  0.00031543  0.00074520
   0.83911628  0.13364020  0.00071913
   0.77244051  0.20030743  0.00072629
   0.83912024  0.33363573  0.00073183
   0.77244632  0.40029837  0.00072872
   0.83911898  0.53363396  0.00077638
   0.77245614  0.60030817  0.00074464
   0.83911503  0.73364318  0.00078939
   0.97245531  0.80030558  0.00081529
   0.03911471  0.93364329  0.00074756
   0.17245797  0.80031221  0.00077922
   0.23913455  0.93364719  0.00068106
   0.37245140  0.80031667  0.00068925
   0.43912449  0.93364477  0.00067679
   0.57244110  0.80031005  0.00066817
   0.63911507  0.93363899  0.00073456
   0.77244510  0.80031319  0.00075258
   0.83911661  0.93364434  0.00075854
   0.37302101  0.25122688  0.25000000
   0.42087980  0.18931315  0.25322109
   0.32515698  0.31316719  0.24702726
 
 position of ions in cartesian coordinates  (Angst):
  11.98347958  0.00342433  0.01416777
  -0.34154264  1.42664989  0.01100432
   2.12354700  0.00315355  0.01249070
   2.12325634  1.42652621  0.00641170
  10.75098721  2.13818970  0.01213047
  -1.57382270  3.56123457  0.01110375
   0.89078307  2.13853702  0.00547917
   0.89099273  3.56146885  0.00180651
   4.58863896  0.00346260  0.01134782
   4.58893648  1.42622757  0.00645846
   9.51853763  4.27280730  0.01369027
  -2.80632132  5.69591267  0.01433526
   2.12299894  4.27302204  0.00000000
   2.12335237  5.69593607  0.00581036
   7.05344483  0.00333155  0.01398950
   7.05352764  1.42635365  0.01368187
   8.28609598  6.40752033  0.01600723
  -4.03884931  7.83070339  0.01636283
   3.35585531  6.40752662  0.01007237
   3.35598594  7.83071962  0.01319763
  -0.34145776  4.27290193  0.00722612
  -0.34137895  5.69591010  0.00946273
   3.35624236  2.13791198  0.00222492
   3.35573251  3.56155103  0.00139405
  -1.57394684  6.40758280  0.01310850
  -1.57385216  7.83068434  0.01437823
   5.82093107  2.13783916  0.01033241
   5.82114012  3.56096622  0.01155939
   0.89092245  6.40754561  0.00907111
   0.89106251  7.83067670  0.01235474
   4.58870974  4.27292622  0.00849795
   4.58852320  5.69606300  0.01149026
   9.51844972  0.00336679  0.01490402
   9.51855036  1.42644387  0.01438264
   8.28593477  2.13803408  0.01452582
   8.28612680  3.56114872  0.01463668
   7.05356221  4.27268994  0.01457444
   7.05362213  5.69588251  0.01552751
   5.82112285  6.40754723  0.01489279
   5.82101669  7.83073350  0.01578780
   7.05362858  8.54227219  0.01630582
  -5.27148792  9.96548729  0.01495127
  -2.80637951  8.54234295  0.01558431
  -2.80626749  9.96552896  0.01362126
  -0.34148805  8.54239058  0.01378498
  -0.34137657  9.96550309  0.01353576
   2.12342586  8.54231992  0.01336337
   2.12354296  9.96544135  0.01469111
   4.58845581  8.54235337  0.01505154
   4.58852904  9.96549848  0.01517076
   3.04929830  2.68153618  5.00000000
   4.02070129  2.02068374  5.06442186
   2.07766701  3.34267235  4.94054513
 


--------------------------------------------------------------------------------------------------------


 k-point   1 :   0.0000 0.0000 0.0000  plane waves:  189031

 maximum and minimum number of plane-waves per node :    189031   189031

 maximum number of plane-waves:    189031
 maximum index in each direction: 
   IXMAX=   31   IYMAX=   31   IZMAX=   51
   IXMIN=  -31   IYMIN=  -31   IZMIN=  -51


 serial   3D FFT for wavefunctions
 parallel 3D FFT for charge:
    minimum data exchange during FFTs selected (reduces bandwidth)


 total amount of memory used by VASP MPI-rank0   556209. kBytes
=======================================================================

   base      :      30000. kBytes
   nonl-proj :     184518. kBytes
   fftplans  :      31725. kBytes
   grid      :     282516. kBytes
   one-center:        162. kBytes
   wavefun   :      27288. kBytes
 
     INWAV:  cpu time    0.0000: real time    0.0000
 Broyden mixing: mesh for mixing (old mesh)
   NGX = 63   NGY = 63   NGZ =103
  (NGX  =256   NGY  =256   NGZ  =420)
  gives a total of 408807 points

 initial charge density was supplied:
 charge density of overlapping atoms calculated
 number of electron     216.0000000 magnetization 
 keeping initial charge density in first step


--------------------------------------------------------------------------------------------------------


 Maximum index for augmentation-charges          459 (set IRDMAX)


--------------------------------------------------------------------------------------------------------


 First call to EWALD:  gamma=   0.128
 Maximum number of real-space cells 3x 3x 2
 Maximum number of reciprocal cells 3x 3x 4

    FEWALD:  cpu time    0.0027: real time    0.0027


--------------------------------------- Iteration      1(   1)  ---------------------------------------


    POTLOK:  cpu time    1.4696: real time    1.4803
    SETDIJ:  cpu time    0.2320: real time    0.2333
    TRIAL :  cpu time   21.7230: real time   21.9274
    CORREC:  cpu time    0.0004: real time    0.0004
    --------------------------------------------
      LOOP:  cpu time   23.4347: real time   23.6663

 eigenvalue-minimisations  :   336
 total energy-change (2. order) : 0.2414333E+04  (-0.1180831E+05)
 number of electron     216.0000000 magnetization 
 augmentation part      216.0000000 magnetization 

 Free energy of the ion-electron system (eV)
  ---------------------------------------------------
  alpha Z        PSCENC =        59.93625244
  Ewald energy   TEWEN  =     31970.79253318
  -Hartree energ DENC   =    -38146.23045881
  -exchange      EXHF   =         0.00000000
  -V(xc)+E(xc)   XCENC  =       602.80940776
  PAW double counting   =      6339.73130699    -6197.22120962
  entropy T*S    EENTRO =        -0.00000000
  eigenvalues    EBANDS =      -585.00811999
  atomic energy  EATOM  =      8369.52358910
  ---------------------------------------------------
  free energy    TOTEN  =      2414.33330105 eV

  energy without entropy =     2414.33330105  energy(sigma->0) =     2414.33330105


--------------------------------------------------------------------------------------------------------




--------------------------------------- Iteration      1(   2)  ---------------------------------------


    TRIAL :  cpu time   35.5530: real time   35.8303
    CORREC:  cpu time    0.0001: real time    0.0001
    --------------------------------------------
      LOOP:  cpu time   35.5794: real time   35.8741

 eigenvalue-minimisations  :   672
 total energy-change (2. order) :-0.2477674E+04  (-0.2369463E+04)
 number of electron     216.0000000 magnetization 
 augmentation part      216.0000000 magnetization 

 Free energy of the ion-electron system (eV)
  ---------------------------------------------------
  alpha Z        PSCENC =        59.93625244
  Ewald energy   TEWEN  =     31970.79253318
  -Hartree energ DENC   =    -38146.23045881
  -exchange      EXHF   =         0.00000000
  -V(xc)+E(xc)   XCENC  =       602.80940776
  PAW double counting   =      6339.73130699    -6197.22120962
  entropy T*S    EENTRO =        -0.00000000
  eigenvalues    EBANDS =     -3062.68185845
  atomic energy  EATOM  =      8369.52358910
  ---------------------------------------------------
  free energy    TOTEN  =       -63.34043741 eV

  energy without entropy =      -63.34043741  energy(sigma->0) =      -63.34043741


--------------------------------------------------------------------------------------------------------




--------------------------------------- Iteration      1(   3)  ---------------------------------------


    TRIAL :  cpu time   23.9553: real time   24.1780
    CORREC:  cpu time    0.0001: real time    0.0001
    --------------------------------------------
      LOOP:  cpu time   24.0302: real time   24.2641

 eigenvalue-minimisations  :   392
 total energy-change (2. order) :-0.5319159E+03  (-0.5292719E+03)
 number of electron     216.0000000 magnetization 
 augmentation part      216.0000000 magnetization 

 Free energy of the ion-electron system (eV)
  ---------------------------------------------------
  alpha Z        PSCENC =        59.93625244
  Ewald energy   TEWEN  =     31970.79253318
  -Hartree energ DENC   =    -38146.23045881
  -exchange      EXHF   =         0.00000000
  -V(xc)+E(xc)   XCENC  =       602.80940776
  PAW double counting   =      6339.73130699    -6197.22120962
  entropy T*S    EENTRO =        -0.00000000
  eigenvalues    EBANDS =     -3594.59774912
  atomic energy  EATOM  =      8369.52358910
  ---------------------------------------------------
  free energy    TOTEN  =      -595.25632809 eV

  energy without entropy =     -595.25632809  energy(sigma->0) =     -595.25632809


--------------------------------------------------------------------------------------------------------




--------------------------------------- Iteration      1(   4)  ---------------------------------------


    TRIAL :  cpu time   26.2996: real time   26.5113
    CORREC:  cpu time    0.0001: real time    0.0001
    --------------------------------------------
      LOOP:  cpu time   26.4120: real time   26.6244

 eigenvalue-minimisations  :   448
 total energy-change (2. order) :-0.2453464E+02  (-0.2439157E+02)
 number of electron     216.0000000 magnetization 
 augmentation part      216.0000000 magnetization 

 Free energy of the ion-electron system (eV)
  ---------------------------------------------------
  alpha Z        PSCENC =        59.93625244
  Ewald energy   TEWEN  =     31970.79253318
  -Hartree energ DENC   =    -38146.23045881
  -exchange      EXHF   =         0.00000000
  -V(xc)+E(xc)   XCENC  =       602.80940776
  PAW double counting   =      6339.73130699    -6197.22120962
  entropy T*S    EENTRO =        -0.00000000
  eigenvalues    EBANDS =     -3619.13239069
  atomic energy  EATOM  =      8369.52358910
  ---------------------------------------------------
  free energy    TOTEN  =      -619.79096966 eV

  energy without entropy =     -619.79096966  energy(sigma->0) =     -619.79096966


--------------------------------------------------------------------------------------------------------




--------------------------------------- Iteration      1(   5)  ---------------------------------------


    TRIAL :  cpu time   21.6994: real time   21.8677
    CORREC:  cpu time    0.0002: real time    0.0002
    CHARGE:  cpu time    2.2945: real time    2.3113
    --------------------------------------------
      LOOP:  cpu time   24.0469: real time   24.2357

 eigenvalue-minimisations  :   336
 total energy-change (2. order) :-0.8597883E+00  (-0.8593362E+00)
 number of electron     216.0000000 magnetization 
 augmentation part       -0.4290535 magnetization 

 Free energy of the ion-electron system (eV)
  ---------------------------------------------------
  alpha Z        PSCENC =        59.93625244
  Ewald energy   TEWEN  =     31970.79253318
  -Hartree energ DENC   =    -38146.23045881
  -exchange      EXHF   =         0.00000000
  -V(xc)+E(xc)   XCENC  =       602.80940776
  PAW double counting   =      6339.73130699    -6197.22120962
  entropy T*S    EENTRO =        -0.00000000
  eigenvalues    EBANDS =     -3619.99217901
  atomic energy  EATOM  =      8369.52358910
  ---------------------------------------------------
  free energy    TOTEN  =      -620.65075798 eV

  energy without entropy =     -620.65075798  energy(sigma->0) =     -620.65075798


--------------------------------------------------------------------------------------------------------




--------------------------------------- Iteration      1(   6)  ---------------------------------------


    POTLOK:  cpu time    1.4473: real time    1.4549
    SETDIJ:  cpu time    0.2398: real time    0.2406
    TRIAL :  cpu time   15.4619: real time   15.5746
    CORREC:  cpu time    7.1329: real time    7.1792
    CHARGE:  cpu time    2.3013: real time    2.3173
    --------------------------------------------
      LOOP:  cpu time   26.6183: real time   26.8167

 eigenvalue-minimisations  :     0
 total energy-change (2. order) : 0.1041564E+03  (-0.1206172E+02)
 number of electron     216.0000000 magnetization 
 augmentation part       -0.4916522 magnetization 

 Free energy of the ion-electron system (eV)
  ---------------------------------------------------
  alpha Z        PSCENC =        59.93625244
  Ewald energy   TEWEN  =     31970.79253318
  -Hartree energ DENC   =    -39478.36706563
  -exchange      EXHF   =         0.00000000
  -V(xc)+E(xc)   XCENC  =       669.77667444
  PAW double counting   =    113662.99271797  -113526.22897937
  entropy T*S    EENTRO =        -0.00000000
  eigenvalues    EBANDS =     -2244.92008833
  atomic energy  EATOM  =      8369.52358910
  ---------------------------------------------------
  free energy    TOTEN  =      -516.49436620 eV

  energy without entropy =     -516.49436620  energy(sigma->0) =     -516.49436620


--------------------------------------------------------------------------------------------------------




--------------------------------------- Iteration      1(   7)  ---------------------------------------


    POTLOK:  cpu time    1.4397: real time    1.4472
    SETDIJ:  cpu time    0.2325: real time    0.2333
    TRIAL :  cpu time   15.4220: real time   15.5832
    CORREC:  cpu time    7.1164: real time    7.1926
    CHARGE:  cpu time    2.2907: real time    2.3071
    --------------------------------------------
      LOOP:  cpu time   26.5258: real time   26.7899

 eigenvalue-minimisations  :     0
 total energy-change (2. order) :-0.1207575E+02  (-0.1608467E+01)
 number of electron     216.0000000 magnetization 
 augmentation part       -0.5225698 magnetization 

 Free energy of the ion-electron system (eV)
  ---------------------------------------------------
  alpha Z        PSCENC =        59.93625244
  Ewald energy   TEWEN  =     31970.79253318
  -Hartree energ DENC   =    -39060.97663509
  -exchange      EXHF   =         0.00000000
  -V(xc)+E(xc)   XCENC  =       649.94780234
  PAW double counting   =    131922.03951829  -131782.52601715
  entropy T*S    EENTRO =        -0.00000000
  eigenvalues    EBANDS =     -2657.30716148
  atomic energy  EATOM  =      8369.52358910
  ---------------------------------------------------
  free energy    TOTEN  =      -528.57011837 eV

  energy without entropy =     -528.57011837  energy(sigma->0) =     -528.57011837


--------------------------------------------------------------------------------------------------------




--------------------------------------- Iteration      1(   8)  ---------------------------------------


    POTLOK:  cpu time    1.4431: real time    1.4512
    SETDIJ:  cpu time    0.2346: real time    0.2354
    TRIAL :  cpu time   15.4622: real time   15.5802
    CORREC:  cpu time    7.1273: real time    7.1756
    CHARGE:  cpu time    2.3013: real time    2.3175
    --------------------------------------------
      LOOP:  cpu time   26.5825: real time   26.7876

 eigenvalue-minimisations  :     0
 total energy-change (2. order) :-0.1608712E+01  (-0.5372548E+00)
 number of electron     216.0000000 magnetization 
 augmentation part       -0.5201736 magnetization 

 Free energy of the ion-electron system (eV)
  ---------------------------------------------------
  alpha Z        PSCENC =        59.93625244
  Ewald energy   TEWEN  =     31970.79253318
  -Hartree energ DENC   =    -39030.65302346
  -exchange      EXHF   =         0.00000000
  -V(xc)+E(xc)   XCENC  =       648.32168811
  PAW double counting   =    140094.93128261  -139954.92942188
  entropy T*S    EENTRO =        -0.00000000
  eigenvalues    EBANDS =     -2688.10173072
  atomic energy  EATOM  =      8369.52358910
  ---------------------------------------------------
  free energy    TOTEN  =      -530.17883062 eV

  energy without entropy =     -530.17883062  energy(sigma->0) =     -530.17883062


--------------------------------------------------------------------------------------------------------




--------------------------------------- Iteration      1(   9)  ---------------------------------------


    POTLOK:  cpu time    1.4346: real time    1.4505
    SETDIJ:  cpu time    0.2311: real time    0.2318
    TRIAL :  cpu time   15.4798: real time   15.5918
    CORREC:  cpu time    7.1461: real time    7.1920
    CHARGE:  cpu time    2.2975: real time    2.3136
    --------------------------------------------
      LOOP:  cpu time   26.6683: real time   26.8608

 eigenvalue-minimisations  :     0
 total energy-change (2. order) :-0.5367957E+00  (-0.2135978E+00)
 number of electron     216.0000000 magnetization 
 augmentation part       -0.5144926 magnetization 

 Free energy of the ion-electron system (eV)
  ---------------------------------------------------
  alpha Z        PSCENC =        59.93625244
  Ewald energy   TEWEN  =     31970.79253318
  -Hartree energ DENC   =    -39037.84317651
  -exchange      EXHF   =         0.00000000
  -V(xc)+E(xc)   XCENC  =       648.04787128
  PAW double counting   =    146512.09416660  -146371.88765769
  entropy T*S    EENTRO =        -0.00000000
  eigenvalues    EBANDS =     -2681.37920476
  atomic energy  EATOM  =      8369.52358910
  ---------------------------------------------------
  free energy    TOTEN  =      -530.71562636 eV

  energy without entropy =     -530.71562636  energy(sigma->0) =     -530.71562636


--------------------------------------------------------------------------------------------------------




--------------------------------------- Iteration      1(  10)  ---------------------------------------


    POTLOK:  cpu time    1.4488: real time    1.4567
    SETDIJ:  cpu time    0.2347: real time    0.2355
    TRIAL :  cpu time   15.4553: real time   15.5817
    CORREC:  cpu time    7.1172: real time    7.1805
    CHARGE:  cpu time    2.2895: real time    2.3076
    --------------------------------------------
      LOOP:  cpu time   26.6671: real time   26.8850

 eigenvalue-minimisations  :     0
 total energy-change (2. order) :-0.2132479E+00  (-0.9050233E-01)
 number of electron     216.0000000 magnetization 
 augmentation part       -0.5078087 magnetization 

 Free energy of the ion-electron system (eV)
  ---------------------------------------------------
  alpha Z        PSCENC =        59.93625244
  Ewald energy   TEWEN  =     31970.79253318
  -Hartree energ DENC   =    -39037.30215203
  -exchange      EXHF   =         0.00000000
  -V(xc)+E(xc)   XCENC  =       647.82198993
  PAW double counting   =    148979.78757744  -148839.47997621
  entropy T*S    EENTRO =        -0.00000000
  eigenvalues    EBANDS =     -2682.00868808
  atomic energy  EATOM  =      8369.52358910
  ---------------------------------------------------
  free energy    TOTEN  =      -530.92887424 eV

  energy without entropy =     -530.92887424  energy(sigma->0) =     -530.92887424


--------------------------------------------------------------------------------------------------------




--------------------------------------- Iteration      1(  11)  ---------------------------------------


    POTLOK:  cpu time    1.4487: real time    1.4562
    SETDIJ:  cpu time    0.2315: real time    0.2322
    TRIAL :  cpu time   15.4647: real time   15.5801
    CORREC:  cpu time    7.1388: real time    7.1946
    CHARGE:  cpu time    2.2964: real time    2.3124
    --------------------------------------------
      LOOP:  cpu time   26.6421: real time   26.8418

 eigenvalue-minimisations  :     0
 total energy-change (2. order) :-0.9029323E-01  (-0.3559589E-01)
 number of electron     216.0000000 magnetization 
 augmentation part       -0.5038267 magnetization 

 Free energy of the ion-electron system (eV)
  ---------------------------------------------------
  alpha Z        PSCENC =        59.93625244
  Ewald energy   TEWEN  =     31970.79253318
  -Hartree energ DENC   =    -39031.43004906
  -exchange      EXHF   =         0.00000000
  -V(xc)+E(xc)   XCENC  =       647.67727008
  PAW double counting   =    148785.71582567  -148645.40953322
  entropy T*S    EENTRO =        -0.00000000
  eigenvalues    EBANDS =     -2687.82505566
  atomic energy  EATOM  =      8369.52358910
  ---------------------------------------------------
  free energy    TOTEN  =      -531.01916747 eV

  energy without entropy =     -531.01916747  energy(sigma->0) =     -531.01916747


--------------------------------------------------------------------------------------------------------




--------------------------------------- Iteration      1(  12)  ---------------------------------------


    POTLOK:  cpu time    1.4463: real time    1.4540
    SETDIJ:  cpu time    0.2380: real time    0.2387
    TRIAL :  cpu time   15.4676: real time   15.5794
    CORREC:  cpu time    7.1316: real time    7.1785
    CHARGE:  cpu time    2.2880: real time    2.3111
    --------------------------------------------
      LOOP:  cpu time   26.6017: real time   26.8069

 eigenvalue-minimisations  :     0
 total energy-change (2. order) :-0.3556744E-01  (-0.1147041E-01)
 number of electron     216.0000000 magnetization 
 augmentation part       -0.5037563 magnetization 

 Free energy of the ion-electron system (eV)
  ---------------------------------------------------
  alpha Z        PSCENC =        59.93625244
  Ewald energy   TEWEN  =     31970.79253318
  -Hartree energ DENC   =    -39026.74822763
  -exchange      EXHF   =         0.00000000
  -V(xc)+E(xc)   XCENC  =       647.57880007
  PAW double counting   =    148008.13767575  -147867.86001881
  entropy T*S    EENTRO =        -0.00000000
  eigenvalues    EBANDS =     -2692.41533901
  atomic energy  EATOM  =      8369.52358910
  ---------------------------------------------------
  free energy    TOTEN  =      -531.05473491 eV

  energy without entropy =     -531.05473491  energy(sigma->0) =     -531.05473491


--------------------------------------------------------------------------------------------------------




--------------------------------------- Iteration      1(  13)  ---------------------------------------


    POTLOK:  cpu time    1.4527: real time    1.4602
    SETDIJ:  cpu time    0.2300: real time    0.2307
    TRIAL :  cpu time   15.4467: real time   15.5751
    CORREC:  cpu time    7.1415: real time    7.1892
    CHARGE:  cpu time    2.2923: real time    2.3090
    --------------------------------------------
      LOOP:  cpu time   26.6324: real time   26.8357

 eigenvalue-minimisations  :     0
 total energy-change (2. order) :-0.1148171E-01  (-0.3161694E-02)
 number of electron     216.0000000 magnetization 
 augmentation part       -0.5044910 magnetization 

 Free energy of the ion-electron system (eV)
  ---------------------------------------------------
  alpha Z        PSCENC =        59.93625244
  Ewald energy   TEWEN  =     31970.79253318
  -Hartree energ DENC   =    -39025.25557569
  -exchange      EXHF   =         0.00000000
  -V(xc)+E(xc)   XCENC  =       647.52993880
  PAW double counting   =    147423.50728066  -147283.24405789
  entropy T*S    EENTRO =        -0.00000000
  eigenvalues    EBANDS =     -2693.85617722
  atomic energy  EATOM  =      8369.52358910
  ---------------------------------------------------
  free energy    TOTEN  =      -531.06621662 eV

  energy without entropy =     -531.06621662  energy(sigma->0) =     -531.06621662


--------------------------------------------------------------------------------------------------------




--------------------------------------- Iteration      1(  14)  ---------------------------------------


    POTLOK:  cpu time    1.4464: real time    1.4577
    SETDIJ:  cpu time    0.2342: real time    0.2350
    TRIAL :  cpu time   15.4545: real time   15.5785
    CORREC:  cpu time    7.1301: real time    7.1800
    CHARGE:  cpu time    2.2896: real time    2.3079
    --------------------------------------------
      LOOP:  cpu time   26.6312: real time   26.8396

 eigenvalue-minimisations  :     0
 total energy-change (2. order) :-0.3167074E-02  (-0.8292956E-03)
 number of electron     216.0000000 magnetization 
 augmentation part       -0.5048021 magnetization 

 Free energy of the ion-electron system (eV)
  ---------------------------------------------------
  alpha Z        PSCENC =        59.93625244
  Ewald energy   TEWEN  =     31970.79253318
  -Hartree energ DENC   =    -39025.29168899
  -exchange      EXHF   =         0.00000000
  -V(xc)+E(xc)   XCENC  =       647.52850909
  PAW double counting   =    147153.43029355  -147013.17327401
  entropy T*S    EENTRO =        -0.00000000
  eigenvalues    EBANDS =     -2693.81559805
  atomic energy  EATOM  =      8369.52358910
  ---------------------------------------------------
  free energy    TOTEN  =      -531.06938369 eV

  energy without entropy =     -531.06938369  energy(sigma->0) =     -531.06938369


--------------------------------------------------------------------------------------------------------




--------------------------------------- Iteration      1(  15)  ---------------------------------------


    POTLOK:  cpu time    1.4471: real time    1.4548
    SETDIJ:  cpu time    0.2412: real time    0.2420
    TRIAL :  cpu time   15.4621: real time   15.5899
    CORREC:  cpu time    7.1214: real time    7.1820
    CHARGE:  cpu time    2.2849: real time    2.3082
    --------------------------------------------
      LOOP:  cpu time   26.5997: real time   26.8299

 eigenvalue-minimisations  :     0
 total energy-change (2. order) :-0.8297588E-03  (-0.2446360E-03)
 number of electron     216.0000000 magnetization 
 augmentation part       -0.5049468 magnetization 

 Free energy of the ion-electron system (eV)
  ---------------------------------------------------
  alpha Z        PSCENC =        59.93625244
  Ewald energy   TEWEN  =     31970.79253318
  -Hartree energ DENC   =    -39025.19020608
  -exchange      EXHF   =         0.00000000
  -V(xc)+E(xc)   XCENC  =       647.52876085
  PAW double counting   =    147049.30791341  -146909.05340371
  entropy T*S    EENTRO =        -0.00000000
  eigenvalues    EBANDS =     -2693.91565265
  atomic energy  EATOM  =      8369.52358910
  ---------------------------------------------------
  free energy    TOTEN  =      -531.07021345 eV

  energy without entropy =     -531.07021345  energy(sigma->0) =     -531.07021345


--------------------------------------------------------------------------------------------------------




--------------------------------------- Iteration      1(  16)  ---------------------------------------


    POTLOK:  cpu time    1.4485: real time    1.4559
    SETDIJ:  cpu time    0.2345: real time    0.2352
    TRIAL :  cpu time   15.4207: real time   15.5816
    CORREC:  cpu time    7.1258: real time    7.1927
    CHARGE:  cpu time    2.2917: real time    2.3075
    --------------------------------------------
      LOOP:  cpu time   26.5877: real time   26.8450

 eigenvalue-minimisations  :     0
 total energy-change (2. order) :-0.2448700E-03  (-0.9190816E-04)
 number of electron     216.0000000 magnetization 
 augmentation part       -0.5050009 magnetization 

 Free energy of the ion-electron system (eV)
  ---------------------------------------------------
  alpha Z        PSCENC =        59.93625244
  Ewald energy   TEWEN  =     31970.79253318
  -Hartree energ DENC   =    -39025.10755150
  -exchange      EXHF   =         0.00000000
  -V(xc)+E(xc)   XCENC  =       647.52788405
  PAW double counting   =    146988.23469553  -146847.98079745
  entropy T*S    EENTRO =        -0.00000000
  eigenvalues    EBANDS =     -2693.99706366
  atomic energy  EATOM  =      8369.52358910
  ---------------------------------------------------
  free energy    TOTEN  =      -531.07045832 eV

  energy without entropy =     -531.07045832  energy(sigma->0) =     -531.07045832


--------------------------------------------------------------------------------------------------------




--------------------------------------- Iteration      1(  17)  ---------------------------------------


    POTLOK:  cpu time    1.4482: real time    1.4559
    SETDIJ:  cpu time    0.2357: real time    0.2365
    TRIAL :  cpu time   15.4618: real time   15.5729
    CORREC:  cpu time    7.1124: real time    7.1805
    CHARGE:  cpu time    2.2956: real time    2.3115
    --------------------------------------------
      LOOP:  cpu time   26.6039: real time   26.8223

 eigenvalue-minimisations  :     0
 total energy-change (2. order) :-0.9066297E-04  (-0.4284421E-04)
 number of electron     216.0000000 magnetization 
 augmentation part       -0.5050285 magnetization 

 Free energy of the ion-electron system (eV)
  ---------------------------------------------------
  alpha Z        PSCENC =        59.93625244
  Ewald energy   TEWEN  =     31970.79253318
  -Hartree energ DENC   =    -39025.26543451
  -exchange      EXHF   =         0.00000000
  -V(xc)+E(xc)   XCENC  =       647.53656149
  PAW double counting   =    146942.04324133  -146801.79012110
  entropy T*S    EENTRO =        -0.00000000
  eigenvalues    EBANDS =     -2693.84717091
  atomic energy  EATOM  =      8369.52358910
  ---------------------------------------------------
  free energy    TOTEN  =      -531.07054898 eV

  energy without entropy =     -531.07054898  energy(sigma->0) =     -531.07054898


--------------------------------------------------------------------------------------------------------




--------------------------------------- Iteration      1(  18)  ---------------------------------------


    POTLOK:  cpu time    1.4447: real time    1.4535
    SETDIJ:  cpu time    0.2376: real time    0.2384
    TRIAL :  cpu time   15.4511: real time   15.5761
    CORREC:  cpu time    7.1092: real time    7.1726
    CHARGE:  cpu time    2.2857: real time    2.3110
    --------------------------------------------
      LOOP:  cpu time   26.5342: real time   26.7846

 eigenvalue-minimisations  :     0
 total energy-change (2. order) :-0.4131877E-04  (-0.1867785E-04)
 number of electron     216.0000000 magnetization 
 augmentation part       -0.5050634 magnetization 

 Free energy of the ion-electron system (eV)
  ---------------------------------------------------
  alpha Z        PSCENC =        59.93625244
  Ewald energy   TEWEN  =     31970.79253318
  -Hartree energ DENC   =    -39025.35122864
  -exchange      EXHF   =         0.00000000
  -V(xc)+E(xc)   XCENC  =       647.54026131
  PAW double counting   =    146925.47880495  -146785.22541553
  entropy T*S    EENTRO =        -0.00000000
  eigenvalues    EBANDS =     -2693.76538712
  atomic energy  EATOM  =      8369.52358910
  ---------------------------------------------------
  free energy    TOTEN  =      -531.07059030 eV

  energy without entropy =     -531.07059030  energy(sigma->0) =     -531.07059030


--------------------------------------------------------------------------------------------------------




--------------------------------------- Iteration      1(  19)  ---------------------------------------


    POTLOK:  cpu time    1.4531: real time    1.4615
    SETDIJ:  cpu time    0.2295: real time    0.2304
    TRIAL :  cpu time   15.4521: real time   15.5949
    CORREC:  cpu time    7.1316: real time    7.1791
    CHARGE:  cpu time    2.2920: real time    2.3082
    --------------------------------------------
      LOOP:  cpu time   26.6044: real time   26.8430

 eigenvalue-minimisations  :     0
 total energy-change (2. order) :-0.1810477E-04  (-0.7280805E-05)
 number of electron     216.0000000 magnetization 
 augmentation part       -0.5050697 magnetization 

 Free energy of the ion-electron system (eV)
  ---------------------------------------------------
  alpha Z        PSCENC =        59.93625244
  Ewald energy   TEWEN  =     31970.79253318
  -Hartree energ DENC   =    -39025.35054217
  -exchange      EXHF   =         0.00000000
  -V(xc)+E(xc)   XCENC  =       647.53932951
  PAW double counting   =    146934.94139589  -146794.68724974
  entropy T*S    EENTRO =        -0.00000000
  eigenvalues    EBANDS =     -2693.76591662
  atomic energy  EATOM  =      8369.52358910
  ---------------------------------------------------
  free energy    TOTEN  =      -531.07060841 eV

  energy without entropy =     -531.07060841  energy(sigma->0) =     -531.07060841


--------------------------------------------------------------------------------------------------------




--------------------------------------- Iteration      1(  20)  ---------------------------------------


    POTLOK:  cpu time    1.4426: real time    1.4558
    SETDIJ:  cpu time    0.2365: real time    0.2372
    TRIAL :  cpu time   15.4493: real time   15.5682
    CORREC:  cpu time    7.1109: real time    7.1826
    CHARGE:  cpu time    2.2814: real time    2.3061
    --------------------------------------------
      LOOP:  cpu time   26.5443: real time   26.7909

 eigenvalue-minimisations  :     0
 total energy-change (2. order) :-0.7017952E-05  (-0.1815568E-05)
 number of electron     216.0000000 magnetization 
 augmentation part       -0.5050684 magnetization 

 Free energy of the ion-electron system (eV)
  ---------------------------------------------------
  alpha Z        PSCENC =        59.93625244
  Ewald energy   TEWEN  =     31970.79253318
  -Hartree energ DENC   =    -39025.38273600
  -exchange      EXHF   =         0.00000000
  -V(xc)+E(xc)   XCENC  =       647.54026459
  PAW double counting   =    146948.45483192  -146808.20055970
  entropy T*S    EENTRO =        -0.00000000
  eigenvalues    EBANDS =     -2693.73479095
  atomic energy  EATOM  =      8369.52358910
  ---------------------------------------------------
  free energy    TOTEN  =      -531.07061543 eV

  energy without entropy =     -531.07061543  energy(sigma->0) =     -531.07061543


--------------------------------------------------------------------------------------------------------




--------------------------------------- Iteration      1(  21)  ---------------------------------------


    POTLOK:  cpu time    1.4484: real time    1.4563
    SETDIJ:  cpu time    0.2385: real time    0.2393
    TRIAL :  cpu time   15.4443: real time   15.5795
    CORREC:  cpu time    7.1379: real time    7.1944
    CHARGE:  cpu time    2.2940: real time    2.3131
    --------------------------------------------
      LOOP:  cpu time   26.5916: real time   26.8139

 eigenvalue-minimisations  :     0
 total energy-change (2. order) :-0.1845299E-05  (-0.6252460E-06)
 number of electron     216.0000000 magnetization 
 augmentation part       -0.5050599 magnetization 

 Free energy of the ion-electron system (eV)
  ---------------------------------------------------
  alpha Z        PSCENC =        59.93625244
  Ewald energy   TEWEN  =     31970.79253318
  -Hartree energ DENC   =    -39025.37748041
  -exchange      EXHF   =         0.00000000
  -V(xc)+E(xc)   XCENC  =       647.53963970
  PAW double counting   =    146953.71130272  -146813.45699780
  entropy T*S    EENTRO =        -0.00000000
  eigenvalues    EBANDS =     -2693.73945620
  atomic energy  EATOM  =      8369.52358910
  ---------------------------------------------------
  free energy    TOTEN  =      -531.07061727 eV

  energy without entropy =     -531.07061727  energy(sigma->0) =     -531.07061727


--------------------------------------------------------------------------------------------------------




--------------------------------------- Iteration      1(  22)  ---------------------------------------


    POTLOK:  cpu time    1.4463: real time    1.4559
    SETDIJ:  cpu time    0.2364: real time    0.2373
    TRIAL :  cpu time   15.4437: real time   15.5780
    CORREC:  cpu time    7.1429: real time    7.1954
    CHARGE:  cpu time    2.2930: real time    2.3110
    --------------------------------------------
      LOOP:  cpu time   26.5852: real time   26.8414

 eigenvalue-minimisations  :     0
 total energy-change (2. order) :-0.5898182E-06  (-0.2432521E-06)
 number of electron     216.0000000 magnetization 
 augmentation part       -0.5050522 magnetization 

 Free energy of the ion-electron system (eV)
  ---------------------------------------------------
  alpha Z        PSCENC =        59.93625244
  Ewald energy   TEWEN  =     31970.79253318
  -Hartree energ DENC   =    -39025.37078131
  -exchange      EXHF   =         0.00000000
  -V(xc)+E(xc)   XCENC  =       647.53929026
  PAW double counting   =    146955.16889055  -146814.91464319
  entropy T*S    EENTRO =        -0.00000000
  eigenvalues    EBANDS =     -2693.74574887
  atomic energy  EATOM  =      8369.52358910
  ---------------------------------------------------
  free energy    TOTEN  =      -531.07061786 eV

  energy without entropy =     -531.07061786  energy(sigma->0) =     -531.07061786


--------------------------------------------------------------------------------------------------------




--------------------------------------- Iteration      1(  23)  ---------------------------------------


    POTLOK:  cpu time    1.4507: real time    1.4580
    SETDIJ:  cpu time    0.2316: real time    0.2323
    TRIAL :  cpu time   15.4577: real time   15.5817
    CORREC:  cpu time    7.1291: real time    7.1889
    CHARGE:  cpu time    2.2880: real time    2.3067
    --------------------------------------------
      LOOP:  cpu time   26.5963: real time   26.8410

 eigenvalue-minimisations  :     0
 total energy-change (2. order) :-0.1998269E-06  (-0.8225308E-07)
 number of electron     216.0000000 magnetization 
 augmentation part       -0.5050505 magnetization 

 Free energy of the ion-electron system (eV)
  ---------------------------------------------------
  alpha Z        PSCENC =        59.93625244
  Ewald energy   TEWEN  =     31970.79253318
  -Hartree energ DENC   =    -39025.36676813
  -exchange      EXHF   =         0.00000000
  -V(xc)+E(xc)   XCENC  =       647.53915621
  PAW double counting   =    146955.62162003  -146815.36743777
  entropy T*S    EENTRO =        -0.00000000
  eigenvalues    EBANDS =     -2693.74956311
  atomic energy  EATOM  =      8369.52358910
  ---------------------------------------------------
  free energy    TOTEN  =      -531.07061806 eV

  energy without entropy =     -531.07061806  energy(sigma->0) =     -531.07061806


--------------------------------------------------------------------------------------------------------




--------------------------------------- Iteration      1(  24)  ---------------------------------------


    POTLOK:  cpu time    1.4472: real time    1.4569
    SETDIJ:  cpu time    0.2319: real time    0.2328
    TRIAL :  cpu time   15.4031: real time   15.5637
    CORREC:  cpu time    7.1396: real time    7.1891
    EDDIAG:  cpu time    3.2067: real time    3.2312
    CHARGE:  cpu time    2.3002: real time    2.3165
    --------------------------------------------
      LOOP:  cpu time   29.8110: real time   30.0760

 eigenvalue-minimisations  :     0
 total energy-change (2. order) :-0.5905167E-07  (-0.4082229E-07)
 number of electron     216.0000000 magnetization 
 augmentation part       -0.5050490 magnetization 

 Free energy of the ion-electron system (eV)
  ---------------------------------------------------
  alpha Z        PSCENC =        59.93625244
  Ewald energy   TEWEN  =     31970.79253318
  -Hartree energ DENC   =    -39025.36478964
  -exchange      EXHF   =         0.00000000
  -V(xc)+E(xc)   XCENC  =       647.53909088
  PAW double counting   =    146955.71853545  -146815.46437007
  entropy T*S    EENTRO =        -0.00000000
  eigenvalues    EBANDS =     -2693.75145945
  atomic energy  EATOM  =      8369.52358910
  ---------------------------------------------------
  free energy    TOTEN  =      -531.07061812 eV

  energy without entropy =     -531.07061812  energy(sigma->0) =     -531.07061812


--------------------------------------------------------------------------------------------------------


  average scaling for gradient   1.0384


 average (electrostatic) potential at core
  the test charge radii are     0.5770  0.5955
  (the norm of the test charge is              1.0000)
       1 -87.7268       2 -87.7241       3 -87.7282       4 -87.7293       5 -87.7204
       6 -87.7179       7 -87.7263       8 -87.7207       9 -87.7216      10 -87.7251
      11 -87.7170      12 -87.7191      13 -87.7242      14 -87.7178      15 -87.7166
      16 -87.7198      17 -87.7213      18 -87.7247      19 -87.7230      20 -87.7204
      21 -87.7190      22 -87.7148      23 -87.7286      24 -87.7269      25 -87.7188
      26 -87.7189      27 -87.7186      28 -87.7245      29 -87.7198      30 -87.7154
      31 -87.7237      32 -87.7231      33 -87.7210      34 -87.7202      35 -87.7161
      36 -87.7203      37 -87.7183      38 -87.7234      39 -87.7233      40 -87.7250
      41 -87.7261      42 -87.7273      43 -87.7229      44 -87.7256      45 -87.7187
      46 -87.7184      47 -87.7200      48 -87.7184      49 -87.7246      50 -87.7238
      51 -91.8076      52-123.9333      53-123.9364
 
 
 
 E-fermi :  -4.0583     XC(G=0):  -2.3497     alpha+bet : -2.1113

 Fermi energy:        -4.0583242043

 k-point     1 :       0.0000    0.0000    0.0000
  band No.  band energies     occupation 
      1     -28.8676      2.00000
      2     -27.8413      2.00000
      3     -23.2301      2.00000
      4     -22.2455      2.00000
      5     -22.2449      2.00000
      6     -22.2440      2.00000
      7     -22.2428      2.00000
      8     -22.2416      2.00000
      9     -22.2413      2.00000
     10     -20.3119      2.00000
     11     -20.3115      2.00000
     12     -20.3113      2.00000
     13     -20.3112      2.00000
     14     -20.3111      2.00000
     15     -20.3109      2.00000
     16     -19.3765      2.00000
     17     -19.3764      2.00000
     18     -19.3760      2.00000
     19     -19.3754      2.00000
     20     -19.3754      2.00000
     21     -19.3751      2.00000
     22     -17.1562      2.00000
     23     -17.1561      2.00000
     24     -17.1553      2.00000
     25     -17.1549      2.00000
     26     -17.1534      2.00000
     27     -17.1533      2.00000
     28     -15.9963      2.00000
     29     -15.9962      2.00000
     30     -15.9958      2.00000
     31     -15.9957      2.00000
     32     -15.9949      2.00000
     33     -15.9947      2.00000
     34     -14.6039      2.00000
     35     -14.6038      2.00000
     36     -14.6034      2.00000
     37     -14.6029      2.00000
     38     -14.6028      2.00000
     39     -14.6019      2.00000
     40     -12.8209      2.00000
     41     -12.1454      2.00000
     42     -12.1452      2.00000
     43     -12.1448      2.00000
     44     -12.1447      2.00000
     45     -12.1438      2.00000
     46     -12.1435      2.00000
     47     -11.9272      2.00000
     48     -11.9272      2.00000
     49     -11.9260      2.00000
     50     -11.9259      2.00000
     51     -11.9246      2.00000
     52     -11.9243      2.00000
     53     -11.5437      2.00000
     54     -11.2875      2.00000
     55     -11.2857      2.00000
     56     -10.5909      2.00000
     57     -10.4809      2.00000
     58     -10.4807      2.00000
     59     -10.4792      2.00000
     60     -10.4788      2.00000
     61     -10.4787      2.00000
     62     -10.4787      2.00000
     63      -9.4210      2.00000
     64      -9.4194      2.00000
     65      -9.4168      2.00000
     66      -9.4162      2.00000
     67      -9.4140      2.00000
     68      -9.4140      2.00000
     69      -9.1807      2.00000
     70      -9.1802      2.00000
     71      -9.1799      2.00000
     72      -9.1798      2.00000
     73      -9.1792      2.00000
     74      -9.1784      2.00000
     75      -9.1783      2.00000
     76      -9.1775      2.00000
     77      -9.1774      2.00000
     78      -9.1768      2.00000
     79      -9.1766      2.00000
     80      -9.1764      2.00000
     81      -7.6929      2.00000
     82      -7.6896      2.00000
     83      -7.4744      2.00000
     84      -7.4733      2.00000
     85      -7.4726      2.00000
     86      -7.4720      2.00000
     87      -7.4694      2.00000
     88      -7.4689      2.00000
     89      -7.1763      2.00000
     90      -7.1762      2.00000
     91      -7.1757      2.00000
     92      -7.1751      2.00000
     93      -7.1748      2.00000
     94      -7.1745      2.00000
     95      -6.2329      2.00000
     96      -6.2313      2.00000
     97      -6.2310      2.00000
     98      -6.2306      2.00000
     99      -6.2302      2.00000
    100      -6.2293      2.00000
    101      -5.9567      2.00000
    102      -5.9544      2.00000
    103      -4.1346      2.00000
    104      -4.1344      2.00000
    105      -4.1342      2.00000
    106      -4.1338      2.00000
    107      -4.1315      2.00000
    108      -4.1314      2.00000
    109      -1.1590      0.00000
    110      -1.1587      0.00000
    111      -1.1572      0.00000
    112      -1.1570      0.00000
    113      -1.1564      0.00000
    114      -1.1563      0.00000
    115       0.8200      0.00000
    116       0.8212      0.00000
    117       0.8218      0.00000
    118       0.8227      0.00000
    119       0.8230      0.00000
    120       0.8260      0.00000
    121       0.8690      0.00000
    122       1.4162      0.00000
    123       1.5807      0.00000
    124       1.5861      0.00000
    125       1.9067      0.00000
    126       2.0823      0.00000
    127       2.2577      0.00000
    128       2.3193      0.00000
    129       2.3275      0.00000
    130       2.3361      0.00000
    131       2.3423      0.00000
    132       2.6188      0.00000
    133       2.6985      0.00000
    134       2.6989      0.00000
    135       2.7002      0.00000
    136       2.7008      0.00000
    137       2.7009      0.00000
    138       2.7013      0.00000
    139       2.9218      0.00000
    140       2.9843      0.00000
    141       3.0939      0.00000
    142       3.0963      0.00000
    143       3.1106      0.00000
    144       3.1292      0.00000
    145       3.1889      0.00000
    146       3.1972      0.00000
    147       3.2396      0.00000
    148       3.2676      0.00000
    149       3.2761      0.00000
    150       3.3078      0.00000
    151       3.3839      0.00000
    152       4.3274      0.00000
    153       4.7384      0.00000
    154       4.8015      0.00000
    155       4.8206      0.00000
    156       4.8994      0.00000
    157       5.1418      0.00000
    158       5.2920      0.00000
    159       5.3015      0.00000
    160       5.3037      0.00000
    161       5.3065      0.00000
    162       5.3075      0.00000
    163       5.3078      0.00000
    164       5.3431      0.00000
    165       5.4360      0.00000
    166       5.4829      0.00000
    167       5.5329      0.00000
    168       5.5755      0.00000


--------------------------------------------------------------------------------------------------------


 soft charge-density along one line, spin component           1
         0         1         2         3         4         5         6         7         8         9
 total charge-density along one line
 
 pseudopotential strength for first ion, spin component:           1
 12.630  21.251  -0.000   0.000   0.000  -0.000   0.000   0.000
 21.251  35.755  -0.000   0.000   0.000  -0.000   0.000   0.000
 -0.000  -0.000  -3.234   0.000   0.000  -5.794   0.000   0.000
  0.000   0.000   0.000  -3.238   0.000   0.000  -5.800   0.000
  0.000   0.000   0.000   0.000  -3.234   0.000   0.000  -5.794
 -0.000  -0.000  -5.794   0.000   0.000 -10.358   0.000   0.000
  0.000   0.000   0.000  -5.800   0.000   0.000 -10.368   0.000
  0.000   0.000   0.000   0.000  -5.794   0.000   0.000 -10.358
 total augmentation occupancy for first ion, spin component:           1
  9.643  -3.599   0.000  -0.002  -0.001  -0.000   0.001   0.000
 -3.599   1.374  -0.000   0.001   0.000   0.000  -0.000  -0.000
  0.000  -0.000   8.197  -0.009   0.001  -2.896   0.004  -0.000
 -0.002   0.001  -0.009   3.784  -0.000   0.004  -1.107   0.000
 -0.001   0.000   0.001  -0.000   8.196  -0.000   0.000  -2.895
 -0.000   0.000  -2.896   0.004  -0.000   1.036  -0.001   0.000
  0.001  -0.000   0.004  -1.107   0.000  -0.001   0.329   0.000
  0.000  -0.000  -0.000   0.000  -2.895   0.000   0.000   1.035


------------------------ aborting loop because EDIFF is reached ----------------------------------------


    FORLOC:  cpu time    0.1050: real time    0.1057
    FORNL :  cpu time    2.8953: real time    2.9198
    FORCOR:  cpu time    1.4934: real time    1.5012
    OFIELD:  cpu time    0.0024: real time    0.0025

 VOLUME and BASIS-vectors are now :
 -----------------------------------------------------------------------------
  energy-cutoff  :     1000.00
  volume of cell :     2631.08
      direct lattice vectors                 reciprocal lattice vectors
    12.325000000  0.000000000  0.000000000     0.081135903  0.046843835  0.000000000
    -6.162500000 10.673763102  0.000000000     0.000000000  0.093687670  0.000000000
     0.000000000  0.000000000 20.000000000     0.000000000  0.000000000  0.050000000

  length of vectors
    12.325000000 12.325000000 20.000000000     0.093687670  0.093687670  0.050000000


 FORCES acting on ions:
    Electron-Ion                     Ewald-Force                    Non-Local-Force
 -----------------------------------------------------------------------------------------------
   0.445E+01 0.385E+01 0.196E+02   -.445E+01 -.386E+01 -.196E+02   -.975E-04 0.501E-02 0.756E-02
   0.654E+01 0.317E+01 0.231E+02   -.655E+01 -.318E+01 -.231E+02   0.292E-02 0.959E-02 -.637E-02
   0.283E+01 0.757E+01 0.258E+02   -.284E+01 -.759E+01 -.258E+02   0.891E-02 0.250E-01 0.539E-02
   0.381E+01 0.551E+01 0.335E+02   -.382E+01 -.552E+01 -.336E+02   0.249E-01 0.175E-01 0.116E-02
   0.475E+01 0.111E+01 0.198E+02   -.474E+01 -.112E+01 -.198E+02   -.883E-02 0.540E-02 0.133E-02
   0.488E+01 -.953E+00 0.201E+02   -.488E+01 0.949E+00 -.201E+02   -.116E-01 0.125E-01 -.782E-02
   0.716E+01 0.261E+01 0.312E+02   -.717E+01 -.262E+01 -.312E+02   0.222E-01 -.874E-02 0.752E-03
   0.693E+01 -.248E+01 0.325E+02   -.695E+01 0.248E+01 -.325E+02   0.282E-02 0.194E-02 -.681E-02
   -.338E+01 0.682E+01 0.259E+02   0.338E+01 -.684E+01 -.259E+02   0.106E-01 -.243E-02 -.755E-02
   -.518E+01 0.434E+01 0.327E+02   0.518E+01 -.436E+01 -.327E+02   -.243E-01 0.306E-01 0.101E-01
   0.123E+01 -.120E+01 0.173E+02   -.122E+01 0.120E+01 -.173E+02   0.297E-04 -.354E-02 -.162E-02
   0.104E+01 -.870E+00 0.164E+02   -.105E+01 0.875E+00 -.164E+02   -.233E-02 -.579E-02 0.549E-02
   0.276E+01 -.594E+01 0.351E+02   -.278E+01 0.595E+01 -.351E+02   0.406E-01 -.648E-02 0.489E-02
   0.154E+01 -.758E+01 0.268E+02   -.155E+01 0.759E+01 -.268E+02   0.840E-02 0.129E-02 -.166E-01
   -.427E+01 0.263E+01 0.192E+02   0.427E+01 -.264E+01 -.192E+02   0.682E-02 -.819E-03 0.430E-02
   -.588E+01 0.174E+01 0.210E+02   0.589E+01 -.174E+01 -.210E+02   -.595E-02 0.100E-01 -.131E-01
   -.750E+00 -.282E+00 0.159E+02   0.753E+00 0.292E+00 -.159E+02   0.299E-02 -.167E-01 0.251E-02
   0.345E+00 0.262E+01 0.165E+02   -.349E+00 -.261E+01 -.165E+02   0.413E-02 -.106E-01 0.103E-01
   -.114E+01 -.704E+01 0.227E+02   0.114E+01 0.705E+01 -.227E+02   0.343E-02 -.138E-01 0.196E-02
   -.583E+00 -.392E+01 0.179E+02   0.587E+00 0.393E+01 -.179E+02   -.125E-01 -.125E-01 0.735E-03
   0.654E+01 -.289E+01 0.243E+02   -.654E+01 0.289E+01 -.243E+02   -.253E-03 0.390E-02 -.270E-01
   0.431E+01 -.360E+01 0.211E+02   -.432E+01 0.360E+01 -.211E+02   -.409E-02 0.691E-02 -.431E-02
   -.133E+01 0.254E+01 0.383E+02   0.133E+01 -.255E+01 -.384E+02   -.467E-02 0.266E-01 0.275E-01
   -.183E+01 -.401E+01 0.376E+02   0.182E+01 0.401E+01 -.376E+02   0.199E-01 -.132E-01 0.109E-01
   0.224E+01 -.898E+00 0.173E+02   -.224E+01 0.901E+00 -.173E+02   0.797E-02 -.931E-02 -.760E-02
   0.485E+00 0.198E+01 0.174E+02   -.492E+00 -.198E+01 -.174E+02   0.751E-02 -.313E-02 0.517E-02
   -.766E+01 0.105E+01 0.275E+02   0.767E+01 -.106E+01 -.275E+02   0.103E-01 0.164E-01 0.609E-03
   -.732E+01 -.293E+01 0.260E+02   0.734E+01 0.292E+01 -.261E+02   -.167E-01 0.111E-01 0.316E-02
   0.257E+01 -.515E+01 0.217E+02   -.257E+01 0.515E+01 -.217E+02   0.879E-02 0.439E-03 -.150E-01
   0.227E+00 -.214E+01 0.182E+02   -.230E+00 0.215E+01 -.182E+02   -.381E-02 -.607E-03 -.152E-02
   -.545E+01 -.571E+01 0.297E+02   0.545E+01 0.572E+01 -.297E+02   -.186E-01 -.139E-01 -.368E-03
   -.364E+01 -.672E+01 0.235E+02   0.365E+01 0.674E+01 -.235E+02   -.674E-02 -.185E-01 0.841E-02
   0.305E+00 0.115E+01 0.163E+02   -.295E+00 -.116E+01 -.163E+02   -.106E-01 -.130E-02 0.731E-02
   0.769E+00 0.114E+01 0.172E+02   -.765E+00 -.114E+01 -.172E+02   -.142E-01 0.120E-01 -.361E-02
   -.299E+01 0.458E+00 0.182E+02   0.300E+01 -.464E+00 -.182E+02   -.451E-02 0.348E-02 0.732E-02
   -.264E+01 -.111E+01 0.179E+02   0.264E+01 0.111E+01 -.179E+02   -.817E-02 0.344E-02 0.260E-03
   -.516E+01 -.267E+01 0.198E+02   0.517E+01 0.268E+01 -.198E+02   -.698E-02 -.866E-02 0.780E-02
   -.324E+01 -.258E+01 0.176E+02   0.324E+01 0.259E+01 -.176E+02   -.688E-02 -.144E-01 0.110E-01
   -.296E+01 -.381E+01 0.185E+02   0.297E+01 0.383E+01 -.185E+02   -.115E-01 -.200E-01 0.851E-02
   -.443E+00 -.966E+00 0.166E+02   0.449E+00 0.976E+00 -.166E+02   -.560E-02 -.144E-01 0.905E-02
   0.111E+01 0.277E+01 0.170E+02   -.111E+01 -.276E+01 -.170E+02   -.371E-02 -.631E-02 0.806E-02
   0.347E+01 0.543E+01 0.203E+02   -.347E+01 -.543E+01 -.203E+02   0.317E-02 0.278E-02 0.101E-01
   0.296E+00 0.469E+01 0.182E+02   -.299E+00 -.469E+01 -.182E+02   0.123E-01 -.356E-02 0.140E-02
   -.912E-01 0.750E+01 0.234E+02   0.879E-01 -.751E+01 -.234E+02   0.312E-02 0.720E-02 0.654E-02
   -.891E+00 0.171E+01 0.180E+02   0.887E+00 -.171E+01 -.180E+02   0.129E-01 -.408E-02 -.302E-02
   -.348E+01 0.430E+01 0.205E+02   0.348E+01 -.430E+01 -.205E+02   0.158E-02 0.150E-02 -.712E-02
   -.736E+00 -.195E+01 0.172E+02   0.740E+00 0.195E+01 -.172E+02   -.158E-02 -.414E-02 0.410E-02
   -.176E+01 0.677E+00 0.165E+02   0.176E+01 -.674E+00 -.165E+02   -.144E-01 0.170E-02 -.567E-02
   0.188E+00 -.121E+01 0.164E+02   -.181E+00 0.122E+01 -.164E+02   -.871E-02 -.122E-01 0.719E-02
   0.193E+01 0.138E+01 0.165E+02   -.193E+01 -.138E+01 -.165E+02   -.132E-01 0.175E-02 0.355E-02
   0.300E-01 -.121E-01 -.274E+03   -.295E-01 0.842E-02 0.275E+03   -.160E-01 0.153E-01 -.269E-02
   -.228E+03 0.155E+03 -.423E+03   0.279E+03 -.190E+03 0.427E+03   -.527E+02 0.359E+02 -.355E+01
   0.228E+03 -.155E+03 -.404E+03   -.279E+03 0.190E+03 0.401E+03   0.527E+02 -.359E+02 0.318E+01
 -----------------------------------------------------------------------------------------------
   -.139E-01 0.175E-01 0.324E+00   0.568E-13 0.284E-13 0.000E+00   -.118E-01 -.561E-02 -.304E+00
 
 
 POSITION                                       TOTAL-FORCE (eV/Angst)
 -----------------------------------------------------------------------------------
     11.98348      0.00342      0.01417        -0.006814      0.006751     -0.003552
     -0.34154      1.42665      0.01100        -0.014592      0.018252     -0.004323
      2.12355      0.00315      0.01249         0.010422      0.015380     -0.008793
      2.12326      1.42653      0.00641         0.024655      0.017720     -0.007063
     10.75099      2.13819      0.01213        -0.007550      0.017389     -0.000179
     -1.57382      3.56123      0.01110        -0.025000      0.014284     -0.000929
      0.89078      2.13854      0.00548         0.008085      0.011001      0.004084
      0.89099      3.56147      0.00181        -0.012300      0.010617      0.014466
      4.58864      0.00346      0.01135         0.027222     -0.019167     -0.003513
      4.58894      1.42623      0.00646         0.006219      0.025946      0.016807
      9.51854      4.27281      0.01369         0.017244      0.000971      0.001176
     -2.80632      5.69591      0.01434        -0.005425     -0.017776      0.001368
      2.12300      4.27302      0.00000         0.019795      0.017493      0.023911
      2.12335      5.69594      0.00581         0.003380      0.006692      0.000618
      7.05344      0.00333      0.01399         0.008215     -0.015046      0.000569
      7.05353      1.42635      0.01368        -0.002399      0.013565     -0.004524
      8.28610      6.40752      0.01601         0.019590     -0.021866     -0.001035
     -4.03885      7.83070      0.01636         0.007963     -0.019392     -0.001583
      3.35586      6.40753      0.01007        -0.015652     -0.010821     -0.001117
      3.35599      7.83072      0.01320        -0.018392     -0.007504     -0.000231
     -0.34146      4.27290      0.00723         0.000462      0.020153     -0.003761
     -0.34138      5.69591      0.00946        -0.011848      0.003271      0.002101
      3.35624      2.13791      0.00222        -0.003952      0.029372      0.020964
      3.35573      3.56155      0.00139         0.030303     -0.006618      0.012681
     -1.57395      6.40758      0.01311         0.026477     -0.014985     -0.000363
     -1.57385      7.83068      0.01438         0.011024     -0.002935      0.000323
      5.82093      2.13784      0.01033         0.021702      0.006583      0.000281
      5.82114      3.56097      0.01156         0.002873      0.000835     -0.004714
      0.89092      6.40755      0.00907         0.003966      0.000194     -0.002634
      0.89106      7.83068      0.01235        -0.007492      0.008375      0.003402
      4.58871      4.27293      0.00850        -0.021000     -0.001769     -0.009113
      4.58852      5.69606      0.01149         0.001462     -0.022141     -0.003641
      9.51845      0.00337      0.01490        -0.018164     -0.005967     -0.000271
      9.51855      1.42644      0.01438        -0.030834      0.021321      0.000039
      8.28593      2.13803      0.01453         0.001668      0.000181      0.002807
      8.28613      3.56115      0.01464        -0.012085     -0.003919     -0.000669
      7.05356      4.27269      0.01457         0.005021     -0.008405      0.001487
      7.05362      5.69588      0.01553        -0.001486     -0.029870     -0.000207
      5.82112      6.40755      0.01489        -0.015338     -0.018186     -0.000630
      5.82102      7.83073      0.01579        -0.004823     -0.020290     -0.001634
      7.05363      8.54227      0.01631        -0.002879     -0.011367     -0.000897
     -5.27149      9.96549      0.01495         0.000977     -0.001605     -0.004971
     -2.80638      8.54234      0.01558         0.030104     -0.015986     -0.001708
     -2.80627      9.96553      0.01362         0.018844      0.004320     -0.005485
     -0.34149      8.54239      0.01378         0.023854     -0.016382      0.000219
     -0.34138      9.96550      0.01354         0.012003      0.011069     -0.000850
      2.12343      8.54232      0.01336        -0.013234     -0.013736      0.001018
      2.12354      9.96544      0.01469        -0.024910      0.014564     -0.001378
      4.58846      8.54235      0.01505        -0.020559     -0.016664      0.000394
      4.58853      9.96550      0.01517        -0.025418      0.007698     -0.000922
      3.04930      2.68154      5.00000        -0.030639      0.020425      0.034376
      4.02070      2.02068      5.06442        -1.664518      1.107282     -0.137751
      2.07767      3.34267      4.94055         1.673772     -1.109311      0.075350
 -----------------------------------------------------------------------------------
    total drift:                               -0.025700      0.011914      0.019800


--------------------------------------------------------------------------------------------------------



  FREE ENERGIE OF THE ION-ELECTRON SYSTEM (eV)
  ---------------------------------------------------
  free  energy   TOTEN  =      -531.07061812 eV

  energy  without entropy=     -531.07061812  energy(sigma->0) =     -531.07061812
 


--------------------------------------------------------------------------------------------------------


    POTLOK:  cpu time    1.7046: real time    1.7138


--------------------------------------------------------------------------------------------------------


 writing wavefunctions
     LOOP+:  cpu time  671.8122: real time  678.0723
    4ORBIT:  cpu time    0.0000: real time    0.0000

 total amount of memory used by VASP MPI-rank0   556209. kBytes
=======================================================================

   base      :      30000. kBytes
   nonl-proj :     184518. kBytes
   fftplans  :      31725. kBytes
   grid      :     282516. kBytes
   one-center:        162. kBytes
   wavefun   :      27288. kBytes
 
  
  
 General timing and accounting informations for this job:
 ========================================================
  
                  Total CPU time used (sec):      708.671
                            User time (sec):      686.779
                          System time (sec):       21.892
                         Elapsed time (sec):      717.024
  
                   Maximum memory used (kb):     1036748.
                   Average memory used (kb):          N/A
  
                          Minor page faults:       140334
                          Major page faults:           97
                 Voluntary context switches:         3794
