 vasp.6.2.1 16May21 (build Nov 06 2021 14:46:37) complex                        
  
 executed on             LinuxIFC date 2025.04.16  22:47:55
 running on  112 total cores
 distrk:  each k-point on   56 cores,    2 groups
 distr:  one band on NCORE=   1 cores,   56 groups


--------------------------------------------------------------------------------------------------------


 INCAR:
   ALGO = Conjugate
   KPAR = 2
   NCORE = 32
   ISMEAR = 0
   SIGMA = 0.01
   PREC = Accurate
   EDIFF = 1E-7
   ENCUT = 1000
   ISIF = 0
   METAGGA = SCAN
   LASPH = .TRUE.
   SYMPREC = 1E-7

 POTCAR:    PAW_PBE C_h 06Feb2004                 
 POTCAR:    PAW_PBE O_h 06Feb2004                 
 -----------------------------------------------------------------------------
|                                                                             |
|           W    W    AA    RRRRR   N    N  II  N    N   GGGG   !!!           |
|           W    W   A  A   R    R  NN   N  II  NN   N  G    G  !!!           |
|           W    W  A    A  R    R  N N  N  II  N N  N  G       !!!           |
|           W WW W  AAAAAA  RRRRR   N  N N  II  N  N N  G  GGG   !            |
|           WW  WW  A    A  R   R   N   NN  II  N   NN  G    G                |
|           W    W  A    A  R    R  N    N  II  N    N   GGGG   !!!           |
|                                                                             |
|     The value NCORE = 32 specified in the INCAR file was overwritten,       |
|     because it was not compatible with the 56 processes available:          |
|     NCORE = 1                                                               |
|     was used instead, please check that this makes sense for your           |
|     machine.                                                                |
|                                                                             |
 -----------------------------------------------------------------------------

 -----------------------------------------------------------------------------
|                                                                             |
|           W    W    AA    RRRRR   N    N  II  N    N   GGGG   !!!           |
|           W    W   A  A   R    R  NN   N  II  NN   N  G    G  !!!           |
|           W    W  A    A  R    R  N N  N  II  N N  N  G       !!!           |
|           W WW W  AAAAAA  RRRRR   N  N N  II  N  N N  G  GGG   !            |
|           WW  WW  A    A  R   R   N   NN  II  N   NN  G    G                |
|           W    W  A    A  R    R  N    N  II  N    N   GGGG   !!!           |
|                                                                             |
|     For optimal performance we recommend to set                             |
|       NCORE = 2 up to number-of-cores-per-socket                            |
|     NCORE specifies how many cores store one orbital (NPAR=cpu/NCORE).      |
|     This setting can greatly improve the performance of VASP for DFT.       |
|     The default, NCORE=1 might be grossly inefficient on modern             |
|     multi-core architectures or massively parallel machines. Do your        |
|     own testing! More info at https://www.vasp.at/wiki/index.php/NCORE      |
|     Unfortunately you need to use the default for GW and RPA                |
|     calculations (for HF NCORE is supported but not extensively tested      |
|     yet).                                                                   |
|                                                                             |
 -----------------------------------------------------------------------------

 POTCAR:    PAW_PBE C_h 06Feb2004                 
   VRHFIN =C: s2p2                                                                                  
   LEXCH  = PE                                                                                      
   EATOM  =   147.1560 eV,   10.8157 Ry                                                             
                                                                                                    
   TITEL  = PAW_PBE C_h 06Feb2004                                                                   
   LULTRA =        F    use ultrasoft PP ?                                                          
   IUNSCR =        1    unscreen: 0-lin 1-nonlin 2-no                                               
   RPACOR =    0.800    partial core radius                                                         
   POMASS =   12.011; ZVAL   =    4.000    mass and valenz                                          
   RCORE  =    1.100    outmost cutoff radius                                                       
   RWIGS  =    1.630; RWIGS  =    0.863    wigner-seitz radius (au A)                               
   ENMAX  =  700.000; ENMIN  =  500.000 eV                                                          
   ICORE  =        2    local potential                                                             
   LCOR   =        T    correct aug charges                                                         
   LPAW   =        T    paw PP                                                                      
   EAUG   =  946.768                                                                                
   DEXC   =    0.000                                                                                
   RMAX   =    1.128    core radius for proj-oper                                                   
   RAUG   =    1.300    factor for augmentation sphere                                              
   RDEP   =    1.162    radius for radial grids                                                     
   RDEPT  =    1.088    core radius for aug-charge                                                  
                                                                                                    
   Atomic configuration                                                                             
    4 entries                                                                                       
     n  l   j            E        occ.                                                              
     1  0  0.50      -273.3789   2.0000                                                             
     2  0  0.50       -13.7508   2.0000                                                             
     2  1  0.50        -5.2854   2.0000                                                             
     3  2  1.50        -5.4423   0.0000                                                             
   Description                                                                                      
     l       E           TYP  RCUT    TYP  RCUT                                                     
     0    -13.7508458     23  1.100                                                                 
     0     -8.2022199     23  1.100                                                                 
     1     -5.2854383     23  1.100                                                                 
     1      1.1560700     23  1.100                                                                 
     2     -5.4423304      7  1.100                                                                 
  local pseudopotential read in
  partial core-charges read in
  partial kinetic energy density read in
  atomic valenz-charges read in
  non local Contribution for L=           0  read in
    real space projection operators read in
  non local Contribution for L=           0  read in
    real space projection operators read in
  non local Contribution for L=           1  read in
    real space projection operators read in
  non local Contribution for L=           1  read in
    real space projection operators read in
    PAW grid and wavefunctions read in
 
   number of l-projection  operators is LMAX  =           4
   number of lm-projection operators is LMMAX =           8
 
 POTCAR:    PAW_PBE O_h 06Feb2004                 
   VRHFIN =O: s2p4                                                                                  
   LEXCH  = PE                                                                                      
   EATOM  =   432.3788 eV,   31.7789 Ry                                                             
                                                                                                    
   TITEL  = PAW_PBE O_h 06Feb2004                                                                   
   LULTRA =        F    use ultrasoft PP ?                                                          
   IUNSCR =        1    unscreen: 0-lin 1-nonlin 2-no                                               
   RPACOR =    0.800    partial core radius                                                         
   POMASS =   16.000; ZVAL   =    6.000    mass and valenz                                          
   RCORE  =    1.100    outmost cutoff radius                                                       
   RWIGS  =    1.400; RWIGS  =    0.741    wigner-seitz radius (au A)                               
   ENMAX  =  700.000; ENMIN  =  500.000 eV                                                          
   ICORE  =        2    local potential                                                             
   LCOR   =        T    correct aug charges                                                         
   LPAW   =        T    paw PP                                                                      
   EAUG   =  888.804                                                                                
   DEXC   =    0.000                                                                                
   RMAX   =    1.128    core radius for proj-oper                                                   
   RAUG   =    1.300    factor for augmentation sphere                                              
   RDEP   =    1.125    radius for radial grids                                                     
   RDEPT  =    1.088    core radius for aug-charge                                                  
                                                                                                    
   Atomic configuration                                                                             
    4 entries                                                                                       
     n  l   j            E        occ.                                                              
     1  0  0.50      -514.6923   2.0000                                                             
     2  0  0.50       -23.9615   2.0000                                                             
     2  1  0.50        -9.0305   4.0000                                                             
     3  2  1.50        -9.5241   0.0000                                                             
   Description                                                                                      
     l       E           TYP  RCUT    TYP  RCUT                                                     
     0    -23.9615319     23  1.100                                                                 
     0    -25.3221145     23  1.100                                                                 
     1     -9.0304911     23  1.100                                                                 
     1     -5.4802209     23  1.100                                                                 
     2     -9.5240782      7  1.100                                                                 
  local pseudopotential read in
  partial core-charges read in
  partial kinetic energy density read in
  atomic valenz-charges read in
  non local Contribution for L=           0  read in
    real space projection operators read in
  non local Contribution for L=           0  read in
    real space projection operators read in
  non local Contribution for L=           1  read in
    real space projection operators read in
  non local Contribution for L=           1  read in
    real space projection operators read in
    PAW grid and wavefunctions read in
 
   number of l-projection  operators is LMAX  =           4
   number of lm-projection operators is LMMAX =           8
 
 -----------------------------------------------------------------------------
|                                                                             |
|               ----> ADVICE to this user running VASP <----                  |
|                                                                             |
|     You have a (more or less) 'large supercell' and for larger cells it     |
|     might be more efficient to use real-space projection operators.         |
|     Therefore, try LREAL= Auto in the INCAR file.                           |
|     Mind: For very accurate calculation, you might also keep the            |
|     reciprocal projection scheme (i.e. LREAL=.FALSE.).                      |
|                                                                             |
 -----------------------------------------------------------------------------

  PAW_PBE C_h 06Feb2004                 :
 energy of atom  1       EATOM= -147.1560
 kinetic energy error for atom=    0.0031 (will be added to EATOM!!)
  PAW_PBE O_h 06Feb2004                 :
 energy of atom  2       EATOM= -432.3788
 kinetic energy error for atom=    0.0171 (will be added to EATOM!!)
 
 
 POSCAR:  C  O
  positions in cartesian coordinates
  No initial velocities read in

 METAGGA = SCAN     LMAXTAU =  6    LMIXTAU =  F

 exchange correlation table for  LEXCH =        8
   RHO(1)=    0.500       N(1)  =     2000
   RHO(2)=  100.500       N(2)  =     4000
 


--------------------------------------------------------------------------------------------------------


 ion  position               nearest neighbor table
   1  0.972  0.000  0.001-  50 1.42   2 1.42  42 1.42
   2  0.039  0.134  0.000-   5 1.42   7 1.42   1 1.42
   3  0.172  0.000  0.000-  42 1.42  44 1.42   4 1.42
   4  0.239  0.134  0.000-   7 1.42   3 1.42  23 1.42
   5  0.972  0.200  0.000-   6 1.42   2 1.42  34 1.42
   6  0.039  0.334  0.000-   5 1.42  21 1.42  11 1.42
   7  0.172  0.200  0.000-   8 1.42   2 1.42   4 1.42
   8  0.239  0.334  0.000-  13 1.42   7 1.42  21 1.42
   9  0.372  0.000  0.000-  10 1.42  44 1.42  46 1.42
  10  0.439  0.134  0.000-  27 1.42   9 1.42  23 1.42
  11  0.972  0.400  0.001-  12 1.42  36 1.42   6 1.42
  12  0.039  0.534  0.001-  25 1.42  11 1.42  17 1.42
  13  0.372  0.400  0.000-   8 1.42  14 1.42  24 1.42
  14  0.439  0.534  0.000-  13 1.42  29 1.42  19 1.42
  15  0.572  0.000  0.001-  46 1.42  16 1.42  48 1.42
  16  0.639  0.134  0.001-  15 1.42  35 1.42  27 1.42
  17  0.972  0.600  0.001-  38 1.42  18 1.42  12 1.42
  18  0.039  0.734  0.001-  43 1.42  41 1.42  17 1.42
  19  0.572  0.600  0.000-  14 1.42  20 1.42  32 1.42
  20  0.639  0.734  0.001-  49 1.42  19 1.42  47 1.42
  21  0.172  0.400  0.000-  22 1.42   8 1.42   6 1.42
  22  0.239  0.534  0.000-  21 1.42  29 1.42  25 1.42
  23  0.372  0.200  0.000-  10 1.42   4 1.42  24 1.42
  24  0.439  0.334  0.000-  13 1.42  31 1.42  23 1.42
  25  0.172  0.600  0.001-  26 1.42  12 1.42  22 1.42
  26  0.239  0.734  0.001-  25 1.42  45 1.42  43 1.42
  27  0.572  0.200  0.000-  10 1.42  28 1.42  16 1.42
  28  0.639  0.334  0.000-  27 1.42  37 1.42  31 1.42
  29  0.372  0.600  0.000-  22 1.42  14 1.42  30 1.42
  30  0.439  0.734  0.000-  47 1.42  29 1.42  45 1.42
  31  0.572  0.400  0.000-  32 1.42  28 1.42  24 1.42
  32  0.639  0.534  0.000-  31 1.42  39 1.42  19 1.42
  33  0.772  0.000  0.001-  34 1.42  48 1.42  50 1.42
  34  0.839  0.134  0.001-  33 1.42   5 1.42  35 1.42
  35  0.772  0.200  0.001-  36 1.42  16 1.42  34 1.42
  36  0.839  0.334  0.001-  35 1.42  11 1.42  37 1.42
  37  0.772  0.400  0.001-  28 1.42  38 1.42  36 1.42
  38  0.839  0.534  0.001-  17 1.42  37 1.42  39 1.42
  39  0.772  0.600  0.001-  40 1.42  38 1.42  32 1.42
  40  0.839  0.734  0.001-  39 1.42  49 1.42  41 1.42
  41  0.972  0.800  0.001-  18 1.42  42 1.42  40 1.42
  42  0.039  0.934  0.001-   3 1.42  41 1.42   1 1.42
  43  0.172  0.800  0.001-  18 1.42  44 1.42  26 1.42
  44  0.239  0.934  0.001-   9 1.42  43 1.42   3 1.42
  45  0.372  0.800  0.001-  26 1.42  46 1.42  30 1.42
  46  0.439  0.934  0.001-  15 1.42  45 1.42   9 1.42
  47  0.572  0.800  0.001-  30 1.42  48 1.42  20 1.42
  48  0.639  0.934  0.001-  47 1.42  33 1.42  15 1.42
  49  0.772  0.800  0.001-  50 1.42  20 1.42  40 1.42
  50  0.839  0.934  0.001-  49 1.42   1 1.42  33 1.42
  51  0.373  0.251  0.300-  52 1.18  53 1.18
  52  0.421  0.189  0.302-  51 1.18
  53  0.325  0.313  0.297-  51 1.18
 
  LATTYP: Found a hexagonal cell.
 ALAT       =    12.3250000000
 C/A-ratio  =     2.0283975659
  
  Lattice vectors:
  
 A1 = (  12.3250000000,   0.0000000000,   0.0000000000)
 A2 = (  -6.1625000000,  10.6737631016,   0.0000000000)
 A3 = (   0.0000000000,   0.0000000000,  25.0000000000)


Analysis of symmetry for initial positions (statically):
=====================================================================
 Subroutine PRICEL returns:
 Original cell was already a primitive cell.
 

 Routine SETGRP: Setting up the symmetry group for a 
 hexagonal supercell.


 Subroutine GETGRP returns: Found  1 space group operations
 (whereof  1 operations were pure point group operations)
 out of a pool of 24 trial point group operations.


The static configuration has the point symmetry C_1 .


Analysis of symmetry for dynamics (positions and initial velocities):
=====================================================================
 Subroutine PRICEL returns:
 Original cell was already a primitive cell.
 

 Routine SETGRP: Setting up the symmetry group for a 
 hexagonal supercell.


 Subroutine GETGRP returns: Found  1 space group operations
 (whereof  1 operations were pure point group operations)
 out of a pool of 24 trial point group operations.


The dynamic configuration has the point symmetry C_1 .


 Subroutine INISYM returns: Found  1 space group operations
 (whereof  1 operations are pure point group operations),
 and found     1 'primitive' translations


----------------------------------------------------------------------------------------

                                     Primitive cell                                     

  volume of cell :    3288.8533

  direct lattice vectors                    reciprocal lattice vectors
    12.325000000  0.000000000  0.000000000     0.081135903  0.046843835  0.000000000
    -6.162500000 10.673763102  0.000000000     0.000000000  0.093687670  0.000000000
     0.000000000  0.000000000 25.000000000     0.000000000  0.000000000  0.040000000

  length of vectors
    12.325000000 12.325000000 25.000000000     0.093687670  0.093687670  0.040000000

  position of ions in fractional coordinates (direct lattice)
     0.972450841  0.000320818  0.000566711
     0.039118382  0.133659505  0.000440173
     0.172443627  0.000295449  0.000499628
     0.239096278  0.133647917  0.000256468
     0.972452058  0.200322012  0.000485219
     0.039128360  0.333643771  0.000444150
     0.172451764  0.200354552  0.000219167
     0.239124359  0.333665720  0.000072260
     0.372465565  0.000324403  0.000453913
     0.439137473  0.133619939  0.000258338
     0.972449824  0.400309362  0.000547611
     0.039124981  0.533636789  0.000573410
     0.372416176  0.400329481  0.000000000
     0.439099602  0.533638981  0.000232414
     0.572443676  0.000312125  0.000559580
     0.639110207  0.133631751  0.000547275
     0.972452703  0.600305653  0.000640289
     0.039124495  0.733640359  0.000654513
     0.572433471  0.600306242  0.000402895
     0.639111888  0.733641879  0.000527905
     0.172454630  0.400318228  0.000289045
     0.239120185  0.533636548  0.000378509
     0.372459750  0.200295993  0.000088997
     0.439107096  0.333673419  0.000055762
     0.172452155  0.600311506  0.000524340
     0.239123371  0.733638574  0.000575129
     0.572431082  0.200289171  0.000413296
     0.639112773  0.333618630  0.000462376
     0.372439808  0.600308022  0.000362844
     0.439116090  0.733637858  0.000494190
     0.572469358  0.400320504  0.000339918
     0.639119408  0.533650873  0.000459610
     0.772445723  0.000315427  0.000596161
     0.839116277  0.133640203  0.000575306
     0.772440513  0.200307432  0.000581033
     0.839120241  0.333635728  0.000585467
     0.772446320  0.400298367  0.000582978
     0.839118980  0.533633964  0.000621100
     0.772456143  0.600308173  0.000595712
     0.839115033  0.733643180  0.000631512
     0.972455313  0.800305582  0.000652233
     0.039114714  0.933643289  0.000598051
     0.172457971  0.800312211  0.000623372
     0.239134551  0.933647193  0.000544850
     0.372451396  0.800316674  0.000551399
     0.439124489  0.933644769  0.000541430
     0.572441101  0.800310054  0.000534535
     0.639115067  0.933638985  0.000587644
     0.772445098  0.800313187  0.000602062
     0.839116614  0.933644338  0.000606830
     0.373021009  0.251226878  0.299661415
     0.420879805  0.189313152  0.302238290
     0.325156981  0.313167186  0.297283220

  ion indices of the primitive-cell ions
   primitive index   ion index
                 1           1
                 2           2
                 3           3
                 4           4
                 5           5
                 6           6
                 7           7
                 8           8
                 9           9
                10          10
                11          11
                12          12
                13          13
                14          14
                15          15
                16          16
                17          17
                18          18
                19          19
                20          20
                21          21
                22          22
                23          23
                24          24
                25          25
                26          26
                27          27
                28          28
                29          29
                30          30
                31          31
                32          32
                33          33
                34          34
                35          35
                36          36
                37          37
                38          38
                39          39
                40          40
                41          41
                42          42
                43          43
                44          44
                45          45
                46          46
                47          47
                48          48
                49          49
                50          50
                51          51
                52          52
                53          53

----------------------------------------------------------------------------------------

 
 
 KPOINTS: auto                                    

Automatic generation of k-mesh.
 Grid dimensions read from file:
 generate k-points for:    1    1    1

 Generating k-lattice:

  Cartesian coordinates                     Fractional coordinates (reciprocal lattice)
     0.081135903  0.046843835  0.000000000     1.000000000 -0.000000000  0.000000000
     0.000000000  0.093687670  0.000000000     0.000000000  1.000000000  0.000000000
     0.000000000  0.000000000  0.040000000     0.000000000  0.000000000  1.000000000

  Length of vectors
     0.093687670  0.093687670  0.040000000

  Shift w.r.t. Gamma in fractional coordinates (k-lattice)
     0.000000000  0.000000000  0.000000000

 
 Subroutine IBZKPT returns following result:
 ===========================================
 
 Found      1 irreducible k-points:
 
 Following reciprocal coordinates:
            Coordinates               Weight
  0.000000  0.000000  0.000000      1.000000
 
 Following cartesian coordinates:
            Coordinates               Weight
  0.000000  0.000000  0.000000      1.000000
 


--------------------------------------------------------------------------------------------------------




 Dimension of arrays:
   k-points           NKPTS =      1   k-points in BZ     NKDIM =      1   number of bands    NBANDS=    168
   number of dos      NEDOS =    301   number of ions     NIONS =     53
   non local maximal  LDIM  =      4   non local SUM 2l+1 LMDIM =      8
   total plane-waves  NPLWV = ******
   max r-space proj   IRMAX =      1   max aug-charges    IRDMAX=  10008
   dimension x,y,z NGX =   128 NGY =  128 NGZ =  270
   dimension x,y,z NGXF=   256 NGYF=  256 NGZF=  540
   support grid    NGXF=   256 NGYF=  256 NGZF=  540
   ions per type =              51   2
   NGX,Y,Z   is equivalent  to a cutoff of  17.27, 17.27, 17.95 a.u.
   NGXF,Y,Z  is equivalent  to a cutoff of  34.53, 34.53, 35.91 a.u.

 SYSTEM =  unknown system                          
 POSCAR =   C  O                                   

 Startparameter for this run:
   NWRITE =      2    write-flag & timer
   PREC   = accura    normal or accurate (medium, high low for compatibility)
   ISTART =      0    job   : 0-new  1-cont  2-samecut
   ICHARG =      2    charge: 1-file 2-atom 10-const
   ISPIN  =      1    spin polarized calculation?
   LNONCOLLINEAR =      F non collinear calculations
   LSORBIT =      F    spin-orbit coupling
   INIWAV =      1    electr: 0-lowe 1-rand  2-diag
   LASPH  =      T    aspherical Exc in radial PAW
 Electronic Relaxation 1
   ENCUT  = 1000.0 eV  73.50 Ry    8.57 a.u.  31.78 31.78 64.46*2*pi/ulx,y,z
   ENINI  = 1000.0     initial cutoff
   ENAUG  =  946.8 eV  augmentation charge cutoff
   NELM   =     60;   NELMIN=  2; NELMDL= -5     # of ELM steps 
   EDIFF  = 0.1E-06   stopping-criterion for ELM
   LREAL  =      F    real-space projection
   NLSPLINE    = F    spline interpolate recip. space projectors
   LCOMPAT=      F    compatible to vasp.4.4
   GGA_COMPAT  = T    GGA compatible to vasp.4.4-vasp.4.6
   LMAXPAW     = -100 max onsite density
   LMAXMIX     =    2 max onsite mixed and CHGCAR
   VOSKOWN=      0    Vosko Wilk Nusair interpolation
   ROPT   =    0.00000   0.00000
 Ionic relaxation
   EDIFFG = 0.1E-05   stopping-criterion for IOM
   NSW    =      0    number of steps for IOM
   NBLOCK =      1;   KBLOCK =      1    inner block; outer block 
   IBRION =     -1    ionic relax: 0-MD 1-quasi-New 2-CG
   NFREE  =      0    steps in history (QN), initial steepest desc. (CG)
   ISIF   =      0    stress and relaxation
   IWAVPR =     10    prediction:  0-non 1-charg 2-wave 3-comb
   ISYM   =      2    0-nonsym 1-usesym 2-fastsym
   LCORR  =      T    Harris-Foulkes like correction to forces

   POTIM  = 0.5000    time-step for ionic-motion
   TEIN   =    0.0    initial temperature
   TEBEG  =    0.0;   TEEND  =   0.0 temperature during run
   SMASS  =  -3.00    Nose mass-parameter (am)
   estimated Nose-frequenzy (Omega)   =  0.10E-29 period in steps = 0.13E+47 mass=  -0.347E-26a.u.
   SCALEE = 1.0000    scale energy and forces
   NPACO  =    256;   APACO  = 16.0  distance and # of slots for P.C.
   PSTRESS=    0.0 pullay stress

  Mass of Ions in am
   POMASS =  12.01 16.00
  Ionic Valenz
   ZVAL   =   4.00  6.00
  Atomic Wigner-Seitz radii
   RWIGS  =  -1.00 -1.00
  virtual crystal weights 
   VCA    =   1.00  1.00
   NELECT =     216.0000    total number of electrons
   NUPDOWN=      -1.0000    fix difference up-down

 DOS related values:
   EMIN   =  10.00;   EMAX   =-10.00  energy-range for DOS
   EFERMI =   0.00
   ISMEAR =     0;   SIGMA  =   0.01  broadening in eV -4-tet -1-fermi 0-gaus

 Electronic relaxation 2 (details)
   IALGO  =     58    algorithm
   LDIAG  =      T    sub-space diagonalisation (order eigenvalues)
   LSUBROT=      F    optimize rotation matrix (better conditioning)
   TURBO    =      0    0=normal 1=particle mesh
   IRESTART =      0    0=no restart 2=restart with 2 vectors
   NREBOOT  =      0    no. of reboots
   NMIN     =      0    reboot dimension
   EREF     =   0.00    reference energy to select bands
   IMIX   =      4    mixing-type and parameters
     AMIX     =   0.40;   BMIX     =  1.00
     AMIX_MAG =   1.60;   BMIX_MAG =  1.00
     AMIN     =   0.10
     WC   =   100.;   INIMIX=   1;  MIXPRE=   1;  MAXMIX= -45

 Intra band minimization:
   WEIMIN = 0.0000     energy-eigenvalue tresh-hold
   EBREAK =  0.15E-09  absolut break condition
   DEPER  =   0.30     relativ break condition  

   TIME   =   0.40     timestep for ELM

  volume/ion in A,a.u.               =      62.05       418.76
  Fermi-wavevector in a.u.,A,eV,Ry     =   0.660508  1.248179  5.935820  0.436270
  Thomas-Fermi vector in A             =   1.732977
 
 Write flags
   LWAVE        =      T    write WAVECAR
   LDOWNSAMPLE  =      F    k-point downsampling of WAVECAR
   LCHARG       =      T    write CHGCAR
   LVTOT        =      F    write LOCPOT, total local potential
   LVHAR        =      F    write LOCPOT, Hartree potential only
   LELF         =      F    write electronic localiz. function (ELF)
   LORBIT       =      0    0 simple, 1 ext, 2 COOP (PROOUT), +10 PAW based schemes


 Dipole corrections
   LMONO  =      F    monopole corrections only (constant potential shift)
   LDIPOL =      F    correct potential (dipole corrections)
   IDIPOL =      0    1-x, 2-y, 3-z, 4-all directions 
   EPSILON=  1.0000000 bulk dielectric constant

 Exchange correlation treatment:
   GGA     =    --    GGA type
   LEXCH   =     8    internal setting for exchange type
   VOSKOWN=      0    Vosko Wilk Nusair interpolation
   LHFCALC =     F    Hartree Fock is set to
   LHFONE  =     F    Hartree Fock one center treatment
   AEXX    =    0.0000 exact exchange contribution

 Linear response parameters
   LEPSILON=     F    determine dielectric tensor
   LRPA    =     F    only Hartree local field effects (RPA)
   LNABLA  =     F    use nabla operator in PAW spheres
   LVEL    =     F    velocity operator in full k-point grid
   LINTERFAST=   F  fast interpolation
   KINTER  =     0    interpolate to denser k-point grid
   CSHIFT  =0.1000    complex shift for real part using Kramers Kronig
   OMEGAMAX=  -1.0    maximum frequency
   DEG_THRESHOLD= 0.2000000E-02 threshold for treating states as degnerate
   RTIME   =   -0.100 relaxation time in fs
  (WPLASMAI=    0.000 imaginary part of plasma frequency in eV, 0.658/RTIME)
   DFIELD  = 0.0000000 0.0000000 0.0000000 field for delta impulse in time
 
 Orbital magnetization related:
   ORBITALMAG=     F  switch on orbital magnetization
   LCHIMAG   =     F  perturbation theory with respect to B field
   DQ        =  0.001000  dq finite difference perturbation B field
   LLRAUG    =     F  two centre corrections for induced B field



--------------------------------------------------------------------------------------------------------


 Static calculation
 charge density and potential will be updated during run
 non-spin polarized calculation
 Conjugate gradient for all bands (Freysoldt, et al. PRB 79, 241103 (2009))
 preconditioned conjugated gradient                                        
 perform sub-space diagonalisation
    before iterative eigenvector-optimisation
 modified Broyden-mixing scheme, WC =      100.0
 initial mixing is a Kerker type mixing with AMIX =  0.4000 and BMIX =      1.0000
 Hartree-type preconditioning will be used
 using additional bands           60
 reciprocal scheme for non local part
 use partial core corrections
 no Harris-corrections to forces 
 use gradient corrections 
 use of overlap-Matrix (Vanderbilt PP)
 Gauss-broadening in eV      SIGMA  =   0.01


--------------------------------------------------------------------------------------------------------


  energy-cutoff  :     1000.00
  volume of cell :     3288.85
      direct lattice vectors                 reciprocal lattice vectors
    12.325000000  0.000000000  0.000000000     0.081135903  0.046843835  0.000000000
    -6.162500000 10.673763102  0.000000000     0.000000000  0.093687670  0.000000000
     0.000000000  0.000000000 25.000000000     0.000000000  0.000000000  0.040000000

  length of vectors
    12.325000000 12.325000000 25.000000000     0.093687670  0.093687670  0.040000000


 
 k-points in units of 2pi/SCALE and weight: auto                                    
   0.00000000  0.00000000  0.00000000       1.000
 
 k-points in reciprocal lattice and weights: auto                                    
   0.00000000  0.00000000  0.00000000       1.000
 
 position of ions in fractional coordinates (direct lattice) 
   0.97245084  0.00032082  0.00056671
   0.03911838  0.13365950  0.00044017
   0.17244363  0.00029545  0.00049963
   0.23909628  0.13364792  0.00025647
   0.97245206  0.20032201  0.00048522
   0.03912836  0.33364377  0.00044415
   0.17245176  0.20035455  0.00021917
   0.23912436  0.33366572  0.00007226
   0.37246557  0.00032440  0.00045391
   0.43913747  0.13361994  0.00025834
   0.97244982  0.40030936  0.00054761
   0.03912498  0.53363679  0.00057341
   0.37241618  0.40032948  0.00000000
   0.43909960  0.53363898  0.00023241
   0.57244368  0.00031213  0.00055958
   0.63911021  0.13363175  0.00054727
   0.97245270  0.60030565  0.00064029
   0.03912449  0.73364036  0.00065451
   0.57243347  0.60030624  0.00040289
   0.63911189  0.73364188  0.00052791
   0.17245463  0.40031823  0.00028904
   0.23912018  0.53363655  0.00037851
   0.37245975  0.20029599  0.00008900
   0.43910710  0.33367342  0.00005576
   0.17245216  0.60031151  0.00052434
   0.23912337  0.73363857  0.00057513
   0.57243108  0.20028917  0.00041330
   0.63911277  0.33361863  0.00046238
   0.37243981  0.60030802  0.00036284
   0.43911609  0.73363786  0.00049419
   0.57246936  0.40032050  0.00033992
   0.63911941  0.53365087  0.00045961
   0.77244572  0.00031543  0.00059616
   0.83911628  0.13364020  0.00057531
   0.77244051  0.20030743  0.00058103
   0.83912024  0.33363573  0.00058547
   0.77244632  0.40029837  0.00058298
   0.83911898  0.53363396  0.00062110
   0.77245614  0.60030817  0.00059571
   0.83911503  0.73364318  0.00063151
   0.97245531  0.80030558  0.00065223
   0.03911471  0.93364329  0.00059805
   0.17245797  0.80031221  0.00062337
   0.23913455  0.93364719  0.00054485
   0.37245140  0.80031667  0.00055140
   0.43912449  0.93364477  0.00054143
   0.57244110  0.80031005  0.00053453
   0.63911507  0.93363899  0.00058764
   0.77244510  0.80031319  0.00060206
   0.83911661  0.93364434  0.00060683
   0.37302101  0.25122688  0.29966142
   0.42087980  0.18931315  0.30223829
   0.32515698  0.31316719  0.29728322
 
 position of ions in cartesian coordinates  (Angst):
  11.98347958  0.00342433  0.01416777
  -0.34154264  1.42664989  0.01100432
   2.12354700  0.00315355  0.01249070
   2.12325634  1.42652621  0.00641170
  10.75098721  2.13818970  0.01213047
  -1.57382270  3.56123457  0.01110375
   0.89078307  2.13853702  0.00547917
   0.89099273  3.56146885  0.00180651
   4.58863896  0.00346260  0.01134782
   4.58893648  1.42622757  0.00645846
   9.51853763  4.27280730  0.01369027
  -2.80632132  5.69591267  0.01433526
   2.12299894  4.27302204  0.00000000
   2.12335237  5.69593607  0.00581036
   7.05344483  0.00333155  0.01398950
   7.05352764  1.42635365  0.01368187
   8.28609598  6.40752033  0.01600723
  -4.03884931  7.83070339  0.01636283
   3.35585531  6.40752662  0.01007237
   3.35598594  7.83071962  0.01319763
  -0.34145776  4.27290193  0.00722612
  -0.34137895  5.69591010  0.00946273
   3.35624236  2.13791198  0.00222492
   3.35573251  3.56155103  0.00139405
  -1.57394684  6.40758280  0.01310850
  -1.57385216  7.83068434  0.01437823
   5.82093107  2.13783916  0.01033241
   5.82114012  3.56096622  0.01155939
   0.89092245  6.40754561  0.00907111
   0.89106251  7.83067670  0.01235474
   4.58870974  4.27292622  0.00849795
   4.58852320  5.69606300  0.01149026
   9.51844972  0.00336679  0.01490402
   9.51855036  1.42644387  0.01438264
   8.28593477  2.13803408  0.01452582
   8.28612680  3.56114872  0.01463668
   7.05356221  4.27268994  0.01457444
   7.05362213  5.69588251  0.01552751
   5.82112285  6.40754723  0.01489279
   5.82101669  7.83073350  0.01578780
   7.05362858  8.54227219  0.01630582
  -5.27148792  9.96548729  0.01495127
  -2.80637951  8.54234295  0.01558431
  -2.80626749  9.96552896  0.01362126
  -0.34148805  8.54239058  0.01378498
  -0.34137657  9.96550309  0.01353576
   2.12342586  8.54231992  0.01336337
   2.12354296  9.96544135  0.01469111
   4.58845581  8.54235337  0.01505154
   4.58852904  9.96549848  0.01517076
   3.04929830  2.68153618  7.49153538
   4.02070129  2.02068374  7.55595724
   2.07766701  3.34267235  7.43208051
 


--------------------------------------------------------------------------------------------------------


 k-point   1 :   0.0000 0.0000 0.0000  plane waves:  236157

 maximum and minimum number of plane-waves per node :    236157   236157

 maximum number of plane-waves:    236157
 maximum index in each direction: 
   IXMAX=   31   IYMAX=   31   IZMAX=   64
   IXMIN=  -31   IYMIN=  -31   IZMIN=  -64


 serial   3D FFT for wavefunctions
 parallel 3D FFT for charge:
    minimum data exchange during FFTs selected (reduces bandwidth)


 total amount of memory used by VASP MPI-rank0   698619. kBytes
=======================================================================

   base      :      30000. kBytes
   nonl-proj :     230539. kBytes
   fftplans  :      40716. kBytes
   grid      :     363125. kBytes
   one-center:        162. kBytes
   wavefun   :      34077. kBytes
 
     INWAV:  cpu time    0.0000: real time    0.0000
 Broyden mixing: mesh for mixing (old mesh)
   NGX = 63   NGY = 63   NGZ =129
  (NGX  =256   NGY  =256   NGZ  =540)
  gives a total of 512001 points

 initial charge density was supplied:
 charge density of overlapping atoms calculated
 number of electron     216.0000000 magnetization 
 keeping initial charge density in first step


--------------------------------------------------------------------------------------------------------


 Maximum index for augmentation-charges          471 (set IRDMAX)


--------------------------------------------------------------------------------------------------------


 First call to EWALD:  gamma=   0.119
 Maximum number of real-space cells 4x 4x 2
 Maximum number of reciprocal cells 2x 2x 4

    FEWALD:  cpu time    0.0035: real time    0.0035


--------------------------------------- Iteration      1(   1)  ---------------------------------------


    POTLOK:  cpu time    1.9685: real time    1.9863
    SETDIJ:  cpu time    0.2220: real time    0.2230
    TRIAL :  cpu time   27.9736: real time   28.2020
    CORREC:  cpu time    0.0006: real time    0.0006
    --------------------------------------------
      LOOP:  cpu time   30.1758: real time   30.4361

 eigenvalue-minimisations  :   336
 total energy-change (2. order) : 0.2538598E+04  (-0.1080344E+05)
 number of electron     216.0000000 magnetization 
 augmentation part      216.0000000 magnetization 

 Free energy of the ion-electron system (eV)
  ---------------------------------------------------
  alpha Z        PSCENC =        47.94900195
  Ewald energy   TEWEN  =     42045.44139955
  -Hartree energ DENC   =    -48114.65086350
  -exchange      EXHF   =         0.00000000
  -V(xc)+E(xc)   XCENC  =       602.80416408
  PAW double counting   =      6339.73130699    -6197.22120962
  entropy T*S    EENTRO =        -0.00000000
  eigenvalues    EBANDS =      -554.97916627
  atomic energy  EATOM  =      8369.52358910
  ---------------------------------------------------
  free energy    TOTEN  =      2538.59822227 eV

  energy without entropy =     2538.59822228  energy(sigma->0) =     2538.59822228


--------------------------------------------------------------------------------------------------------




--------------------------------------- Iteration      1(   2)  ---------------------------------------


    TRIAL :  cpu time   39.7222: real time   40.0182
    CORREC:  cpu time    0.0001: real time    0.0003
    --------------------------------------------
      LOOP:  cpu time   39.7566: real time   40.0547

 eigenvalue-minimisations  :   560
 total energy-change (2. order) :-0.2489044E+04  (-0.2336465E+04)
 number of electron     216.0000000 magnetization 
 augmentation part      216.0000000 magnetization 

 Free energy of the ion-electron system (eV)
  ---------------------------------------------------
  alpha Z        PSCENC =        47.94900195
  Ewald energy   TEWEN  =     42045.44139955
  -Hartree energ DENC   =    -48114.65086350
  -exchange      EXHF   =         0.00000000
  -V(xc)+E(xc)   XCENC  =       602.80416408
  PAW double counting   =      6339.73130699    -6197.22120962
  entropy T*S    EENTRO =        -0.00000000
  eigenvalues    EBANDS =     -3044.02332821
  atomic energy  EATOM  =      8369.52358910
  ---------------------------------------------------
  free energy    TOTEN  =        49.55406034 eV

  energy without entropy =       49.55406034  energy(sigma->0) =       49.55406034


--------------------------------------------------------------------------------------------------------




--------------------------------------- Iteration      1(   3)  ---------------------------------------


    TRIAL :  cpu time   33.7712: real time   34.0434
    CORREC:  cpu time    0.0001: real time    0.0001
    --------------------------------------------
      LOOP:  cpu time   33.8006: real time   34.0785

 eigenvalue-minimisations  :   448
 total energy-change (2. order) :-0.6477740E+03  (-0.6453666E+03)
 number of electron     216.0000000 magnetization 
 augmentation part      216.0000000 magnetization 

 Free energy of the ion-electron system (eV)
  ---------------------------------------------------
  alpha Z        PSCENC =        47.94900195
  Ewald energy   TEWEN  =     42045.44139955
  -Hartree energ DENC   =    -48114.65086350
  -exchange      EXHF   =         0.00000000
  -V(xc)+E(xc)   XCENC  =       602.80416408
  PAW double counting   =      6339.73130699    -6197.22120962
  entropy T*S    EENTRO =        -0.00000000
  eigenvalues    EBANDS =     -3691.79731312
  atomic energy  EATOM  =      8369.52358910
  ---------------------------------------------------
  free energy    TOTEN  =      -598.21992457 eV

  energy without entropy =     -598.21992457  energy(sigma->0) =     -598.21992457


--------------------------------------------------------------------------------------------------------




--------------------------------------- Iteration      1(   4)  ---------------------------------------


    TRIAL :  cpu time   33.8026: real time   34.0838
    CORREC:  cpu time    0.0001: real time    0.0001
    --------------------------------------------
      LOOP:  cpu time   33.8534: real time   34.1644

 eigenvalue-minimisations  :   448
 total energy-change (2. order) :-0.2174022E+02  (-0.2163798E+02)
 number of electron     216.0000000 magnetization 
 augmentation part      216.0000000 magnetization 

 Free energy of the ion-electron system (eV)
  ---------------------------------------------------
  alpha Z        PSCENC =        47.94900195
  Ewald energy   TEWEN  =     42045.44139955
  -Hartree energ DENC   =    -48114.65086350
  -exchange      EXHF   =         0.00000000
  -V(xc)+E(xc)   XCENC  =       602.80416408
  PAW double counting   =      6339.73130699    -6197.22120962
  entropy T*S    EENTRO =        -0.00000000
  eigenvalues    EBANDS =     -3713.53753050
  atomic energy  EATOM  =      8369.52358910
  ---------------------------------------------------
  free energy    TOTEN  =      -619.96014196 eV

  energy without entropy =     -619.96014196  energy(sigma->0) =     -619.96014196


--------------------------------------------------------------------------------------------------------




--------------------------------------- Iteration      1(   5)  ---------------------------------------


    TRIAL :  cpu time   30.8161: real time   31.0611
    CORREC:  cpu time    0.0001: real time    0.0001
    CHARGE:  cpu time    2.9927: real time    3.0146
    --------------------------------------------
      LOOP:  cpu time   33.8636: real time   34.1397

 eigenvalue-minimisations  :   392
 total energy-change (2. order) :-0.6986283E+00  (-0.6977852E+00)
 number of electron     216.0000000 magnetization 
 augmentation part       -0.4284593 magnetization 

 Free energy of the ion-electron system (eV)
  ---------------------------------------------------
  alpha Z        PSCENC =        47.94900195
  Ewald energy   TEWEN  =     42045.44139955
  -Hartree energ DENC   =    -48114.65086350
  -exchange      EXHF   =         0.00000000
  -V(xc)+E(xc)   XCENC  =       602.80416408
  PAW double counting   =      6339.73130699    -6197.22120962
  entropy T*S    EENTRO =        -0.00000000
  eigenvalues    EBANDS =     -3714.23615883
  atomic energy  EATOM  =      8369.52358910
  ---------------------------------------------------
  free energy    TOTEN  =      -620.65877028 eV

  energy without entropy =     -620.65877028  energy(sigma->0) =     -620.65877028


--------------------------------------------------------------------------------------------------------




--------------------------------------- Iteration      1(   6)  ---------------------------------------


    POTLOK:  cpu time    1.9390: real time    1.9496
    SETDIJ:  cpu time    0.2401: real time    0.2410
    TRIAL :  cpu time   19.9965: real time   20.1431
    CORREC:  cpu time    9.2234: real time    9.2849
    CHARGE:  cpu time    2.9757: real time    2.9965
    --------------------------------------------
      LOOP:  cpu time   34.4253: real time   34.6848

 eigenvalue-minimisations  :     0
 total energy-change (2. order) : 0.1041393E+03  (-0.1205250E+02)
 number of electron     216.0000000 magnetization 
 augmentation part       -0.4895771 magnetization 

 Free energy of the ion-electron system (eV)
  ---------------------------------------------------
  alpha Z        PSCENC =        47.94900195
  Ewald energy   TEWEN  =     42045.44139955
  -Hartree energ DENC   =    -49475.20906250
  -exchange      EXHF   =         0.00000000
  -V(xc)+E(xc)   XCENC  =       669.73521858
  PAW double counting   =    113858.99733375  -113722.24414868
  entropy T*S    EENTRO =        -0.00000000
  eigenvalues    EBANDS =     -2310.71284651
  atomic energy  EATOM  =      8369.52358910
  ---------------------------------------------------
  free energy    TOTEN  =      -516.51951477 eV

  energy without entropy =     -516.51951477  energy(sigma->0) =     -516.51951477


--------------------------------------------------------------------------------------------------------




--------------------------------------- Iteration      1(   7)  ---------------------------------------


    POTLOK:  cpu time    1.9229: real time    1.9339
    SETDIJ:  cpu time    0.2403: real time    0.2411
    TRIAL :  cpu time   20.0165: real time   20.1605
    CORREC:  cpu time    9.2266: real time    9.2879
    CHARGE:  cpu time    2.9669: real time    2.9881
    --------------------------------------------
      LOOP:  cpu time   34.3864: real time   34.6393

 eigenvalue-minimisations  :     0
 total energy-change (2. order) :-0.1206821E+02  (-0.1599501E+01)
 number of electron     216.0000000 magnetization 
 augmentation part       -0.5207545 magnetization 

 Free energy of the ion-electron system (eV)
  ---------------------------------------------------
  alpha Z        PSCENC =        47.94900195
  Ewald energy   TEWEN  =     42045.44139955
  -Hartree energ DENC   =    -49049.16489203
  -exchange      EXHF   =         0.00000000
  -V(xc)+E(xc)   XCENC  =       649.90762685
  PAW double counting   =    132004.85752966  -131865.35358103
  entropy T*S    EENTRO =        -0.00000000
  eigenvalues    EBANDS =     -2731.74839902
  atomic energy  EATOM  =      8369.52358910
  ---------------------------------------------------
  free energy    TOTEN  =      -528.58772497 eV

  energy without entropy =     -528.58772497  energy(sigma->0) =     -528.58772497


--------------------------------------------------------------------------------------------------------




--------------------------------------- Iteration      1(   8)  ---------------------------------------


    POTLOK:  cpu time    1.9296: real time    1.9401
    SETDIJ:  cpu time    0.2331: real time    0.2339
    TRIAL :  cpu time   20.0128: real time   20.1654
    CORREC:  cpu time    9.1970: real time    9.2751
    CHARGE:  cpu time    2.9697: real time    2.9997
    --------------------------------------------
      LOOP:  cpu time   34.3670: real time   34.6408

 eigenvalue-minimisations  :     0
 total energy-change (2. order) :-0.1599362E+01  (-0.5332520E+00)
 number of electron     216.0000000 magnetization 
 augmentation part       -0.5192516 magnetization 

 Free energy of the ion-electron system (eV)
  ---------------------------------------------------
  alpha Z        PSCENC =        47.94900195
  Ewald energy   TEWEN  =     42045.44139955
  -Hartree energ DENC   =    -49017.88674990
  -exchange      EXHF   =         0.00000000
  -V(xc)+E(xc)   XCENC  =       648.29891042
  PAW double counting   =    140052.81277591  -139912.81879422
  entropy T*S    EENTRO =        -0.00000000
  eigenvalues    EBANDS =     -2763.50721948
  atomic energy  EATOM  =      8369.52358910
  ---------------------------------------------------
  free energy    TOTEN  =      -530.18708667 eV

  energy without entropy =     -530.18708667  energy(sigma->0) =     -530.18708667


--------------------------------------------------------------------------------------------------------




--------------------------------------- Iteration      1(   9)  ---------------------------------------


    POTLOK:  cpu time    1.9302: real time    1.9416
    SETDIJ:  cpu time    0.2372: real time    0.2380
    TRIAL :  cpu time   19.9679: real time   20.1521
    CORREC:  cpu time    9.1822: real time    9.2900
    CHARGE:  cpu time    2.9724: real time    2.9940
    --------------------------------------------
      LOOP:  cpu time   34.3193: real time   34.6454

 eigenvalue-minimisations  :     0
 total energy-change (2. order) :-0.5328690E+00  (-0.2109373E+00)
 number of electron     216.0000000 magnetization 
 augmentation part       -0.5141451 magnetization 

 Free energy of the ion-electron system (eV)
  ---------------------------------------------------
  alpha Z        PSCENC =        47.94900195
  Ewald energy   TEWEN  =     42045.44139955
  -Hartree energ DENC   =    -49025.84984693
  -exchange      EXHF   =         0.00000000
  -V(xc)+E(xc)   XCENC  =       648.04500622
  PAW double counting   =    146411.61522392  -146271.41503280
  entropy T*S    EENTRO =        -0.00000000
  eigenvalues    EBANDS =     -2756.02929671
  atomic energy  EATOM  =      8369.52358910
  ---------------------------------------------------
  free energy    TOTEN  =      -530.71995570 eV

  energy without entropy =     -530.71995570  energy(sigma->0) =     -530.71995570


--------------------------------------------------------------------------------------------------------




--------------------------------------- Iteration      1(  10)  ---------------------------------------


    POTLOK:  cpu time    1.9368: real time    1.9474
    SETDIJ:  cpu time    0.2337: real time    0.2345
    TRIAL :  cpu time   20.0093: real time   20.1656
    CORREC:  cpu time    9.2227: real time    9.2853
    CHARGE:  cpu time    2.9729: real time    2.9949
    --------------------------------------------
      LOOP:  cpu time   34.3817: real time   34.6383

 eigenvalue-minimisations  :     0
 total energy-change (2. order) :-0.2105825E+00  (-0.8732087E-01)
 number of electron     216.0000000 magnetization 
 augmentation part       -0.5077934 magnetization 

 Free energy of the ion-electron system (eV)
  ---------------------------------------------------
  alpha Z        PSCENC =        47.94900195
  Ewald energy   TEWEN  =     42045.44139955
  -Hartree energ DENC   =    -49025.60825211
  -exchange      EXHF   =         0.00000000
  -V(xc)+E(xc)   XCENC  =       647.83056455
  PAW double counting   =    148898.91231041  -148758.60823243
  entropy T*S    EENTRO =        -0.00000000
  eigenvalues    EBANDS =     -2756.37091925
  atomic energy  EATOM  =      8369.52358910
  ---------------------------------------------------
  free energy    TOTEN  =      -530.93053823 eV

  energy without entropy =     -530.93053823  energy(sigma->0) =     -530.93053823


--------------------------------------------------------------------------------------------------------




--------------------------------------- Iteration      1(  11)  ---------------------------------------


    POTLOK:  cpu time    1.9385: real time    1.9490
    SETDIJ:  cpu time    0.2352: real time    0.2359
    TRIAL :  cpu time   19.9973: real time   20.1576
    CORREC:  cpu time    9.2379: real time    9.2994
    CHARGE:  cpu time    2.9402: real time    2.9971
    --------------------------------------------
      LOOP:  cpu time   34.3570: real time   34.6501

 eigenvalue-minimisations  :     0
 total energy-change (2. order) :-0.8712342E-01  (-0.3430168E-01)
 number of electron     216.0000000 magnetization 
 augmentation part       -0.5039376 magnetization 

 Free energy of the ion-electron system (eV)
  ---------------------------------------------------
  alpha Z        PSCENC =        47.94900195
  Ewald energy   TEWEN  =     42045.44139955
  -Hartree energ DENC   =    -49019.72303927
  -exchange      EXHF   =         0.00000000
  -V(xc)+E(xc)   XCENC  =       647.69303117
  PAW double counting   =    148723.54282243  -148583.23847178
  entropy T*S    EENTRO =        -0.00000000
  eigenvalues    EBANDS =     -2762.20599480
  atomic energy  EATOM  =      8369.52358910
  ---------------------------------------------------
  free energy    TOTEN  =      -531.01766165 eV

  energy without entropy =     -531.01766165  energy(sigma->0) =     -531.01766165


--------------------------------------------------------------------------------------------------------




--------------------------------------- Iteration      1(  12)  ---------------------------------------


    POTLOK:  cpu time    1.9365: real time    1.9472
    SETDIJ:  cpu time    0.2333: real time    0.2341
    TRIAL :  cpu time   19.9408: real time   20.1432
    CORREC:  cpu time    9.2217: real time    9.2892
    CHARGE:  cpu time    2.9593: real time    2.9946
    --------------------------------------------
      LOOP:  cpu time   34.3371: real time   34.6613

 eigenvalue-minimisations  :     0
 total energy-change (2. order) :-0.3427097E-01  (-0.1107431E-01)
 number of electron     216.0000000 magnetization 
 augmentation part       -0.5038417 magnetization 

 Free energy of the ion-electron system (eV)
  ---------------------------------------------------
  alpha Z        PSCENC =        47.94900195
  Ewald energy   TEWEN  =     42045.44139955
  -Hartree energ DENC   =    -49014.93299719
  -exchange      EXHF   =         0.00000000
  -V(xc)+E(xc)   XCENC  =       647.59392252
  PAW double counting   =    147972.36014243  -147832.08305352
  entropy T*S    EENTRO =        -0.00000000
  eigenvalues    EBANDS =     -2766.90393746
  atomic energy  EATOM  =      8369.52358910
  ---------------------------------------------------
  free energy    TOTEN  =      -531.05193262 eV

  energy without entropy =     -531.05193262  energy(sigma->0) =     -531.05193262


--------------------------------------------------------------------------------------------------------




--------------------------------------- Iteration      1(  13)  ---------------------------------------


    POTLOK:  cpu time    1.9365: real time    1.9476
    SETDIJ:  cpu time    0.2360: real time    0.2368
    TRIAL :  cpu time   19.9964: real time   20.1434
    CORREC:  cpu time    9.2058: real time    9.2916
    CHARGE:  cpu time    2.9588: real time    2.9956
    --------------------------------------------
      LOOP:  cpu time   34.3598: real time   34.6592

 eigenvalue-minimisations  :     0
 total energy-change (2. order) :-0.1108554E-01  (-0.3056616E-02)
 number of electron     216.0000000 magnetization 
 augmentation part       -0.5044828 magnetization 

 Free energy of the ion-electron system (eV)
  ---------------------------------------------------
  alpha Z        PSCENC =        47.94900195
  Ewald energy   TEWEN  =     42045.44139955
  -Hartree energ DENC   =    -49013.45741666
  -exchange      EXHF   =         0.00000000
  -V(xc)+E(xc)   XCENC  =       647.54632614
  PAW double counting   =    147398.09231569  -147257.82965042
  entropy T*S    EENTRO =        -0.00000000
  eigenvalues    EBANDS =     -2768.32858351
  atomic energy  EATOM  =      8369.52358910
  ---------------------------------------------------
  free energy    TOTEN  =      -531.06301816 eV

  energy without entropy =     -531.06301816  energy(sigma->0) =     -531.06301816


--------------------------------------------------------------------------------------------------------




--------------------------------------- Iteration      1(  14)  ---------------------------------------


    POTLOK:  cpu time    1.9396: real time    1.9504
    SETDIJ:  cpu time    0.2466: real time    0.2475
    TRIAL :  cpu time   19.9901: real time   20.1376
    CORREC:  cpu time    9.2048: real time    9.3067
    CHARGE:  cpu time    2.9535: real time    2.9919
    --------------------------------------------
      LOOP:  cpu time   34.3747: real time   34.6745

 eigenvalue-minimisations  :     0
 total energy-change (2. order) :-0.3061994E-02  (-0.8077959E-03)
 number of electron     216.0000000 magnetization 
 augmentation part       -0.5047646 magnetization 

 Free energy of the ion-electron system (eV)
  ---------------------------------------------------
  alpha Z        PSCENC =        47.94900195
  Ewald energy   TEWEN  =     42045.44139955
  -Hartree energ DENC   =    -49013.42935568
  -exchange      EXHF   =         0.00000000
  -V(xc)+E(xc)   XCENC  =       647.54053939
  PAW double counting   =    147144.35985529  -147004.10307204
  entropy T*S    EENTRO =        -0.00000000
  eigenvalues    EBANDS =     -2768.34803770
  atomic energy  EATOM  =      8369.52358910
  ---------------------------------------------------
  free energy    TOTEN  =      -531.06608015 eV

  energy without entropy =     -531.06608015  energy(sigma->0) =     -531.06608015


--------------------------------------------------------------------------------------------------------




--------------------------------------- Iteration      1(  15)  ---------------------------------------


    POTLOK:  cpu time    1.9465: real time    1.9569
    SETDIJ:  cpu time    0.2267: real time    0.2275
    TRIAL :  cpu time   19.9377: real time   20.1218
    CORREC:  cpu time    9.2776: real time    9.4606
    CHARGE:  cpu time    2.9749: real time    2.9969
    --------------------------------------------
      LOOP:  cpu time   34.3793: real time   34.7833

 eigenvalue-minimisations  :     0
 total energy-change (2. order) :-0.8084035E-03  (-0.2118339E-03)
 number of electron     216.0000000 magnetization 
 augmentation part       -0.5048944 magnetization 

 Free energy of the ion-electron system (eV)
  ---------------------------------------------------
  alpha Z        PSCENC =        47.94900195
  Ewald energy   TEWEN  =     42045.44139955
  -Hartree energ DENC   =    -49013.30262555
  -exchange      EXHF   =         0.00000000
  -V(xc)+E(xc)   XCENC  =       647.54011687
  PAW double counting   =    147047.75134886  -146907.49711059
  entropy T*S    EENTRO =        -0.00000000
  eigenvalues    EBANDS =     -2768.47260875
  atomic energy  EATOM  =      8369.52358910
  ---------------------------------------------------
  free energy    TOTEN  =      -531.06688856 eV

  energy without entropy =     -531.06688856  energy(sigma->0) =     -531.06688856


--------------------------------------------------------------------------------------------------------




--------------------------------------- Iteration      1(  16)  ---------------------------------------


    POTLOK:  cpu time    1.9366: real time    1.9473
    SETDIJ:  cpu time    0.2343: real time    0.2351
    TRIAL :  cpu time   19.9839: real time   20.1347
    CORREC:  cpu time    9.2236: real time    9.2876
    CHARGE:  cpu time    2.9817: real time    3.0031
    --------------------------------------------
      LOOP:  cpu time   34.3744: real time   34.6566

 eigenvalue-minimisations  :     0
 total energy-change (2. order) :-0.2122571E-03  (-0.6769798E-04)
 number of electron     216.0000000 magnetization 
 augmentation part       -0.5049409 magnetization 

 Free energy of the ion-electron system (eV)
  ---------------------------------------------------
  alpha Z        PSCENC =        47.94900195
  Ewald energy   TEWEN  =     42045.44139955
  -Hartree energ DENC   =    -49013.21080157
  -exchange      EXHF   =         0.00000000
  -V(xc)+E(xc)   XCENC  =       647.53896180
  PAW double counting   =    146992.11151287  -146851.85785987
  entropy T*S    EENTRO =        -0.00000000
  eigenvalues    EBANDS =     -2768.56290464
  atomic energy  EATOM  =      8369.52358910
  ---------------------------------------------------
  free energy    TOTEN  =      -531.06710082 eV

  energy without entropy =     -531.06710082  energy(sigma->0) =     -531.06710082


--------------------------------------------------------------------------------------------------------




--------------------------------------- Iteration      1(  17)  ---------------------------------------


    POTLOK:  cpu time    1.9359: real time    1.9465
    SETDIJ:  cpu time    0.2411: real time    0.2420
    TRIAL :  cpu time   20.0169: real time   20.1645
    CORREC:  cpu time    9.2257: real time    9.2869
    CHARGE:  cpu time    2.9762: real time    2.9971
    --------------------------------------------
      LOOP:  cpu time   34.4679: real time   34.7171

 eigenvalue-minimisations  :     0
 total energy-change (2. order) :-0.6700924E-04  (-0.2736293E-04)
 number of electron     216.0000000 magnetization 
 augmentation part       -0.5049591 magnetization 

 Free energy of the ion-electron system (eV)
  ---------------------------------------------------
  alpha Z        PSCENC =        47.94900195
  Ewald energy   TEWEN  =     42045.44139955
  -Hartree energ DENC   =    -49013.33646637
  -exchange      EXHF   =         0.00000000
  -V(xc)+E(xc)   XCENC  =       647.54580940
  PAW double counting   =    146952.20137475  -146811.94839380
  entropy T*S    EENTRO =        -0.00000000
  eigenvalues    EBANDS =     -2768.44348240
  atomic energy  EATOM  =      8369.52358910
  ---------------------------------------------------
  free energy    TOTEN  =      -531.06716782 eV

  energy without entropy =     -531.06716782  energy(sigma->0) =     -531.06716782


--------------------------------------------------------------------------------------------------------




--------------------------------------- Iteration      1(  18)  ---------------------------------------


    POTLOK:  cpu time    1.9389: real time    1.9494
    SETDIJ:  cpu time    0.2341: real time    0.2348
    TRIAL :  cpu time   20.0185: real time   20.1613
    CORREC:  cpu time    9.2347: real time    9.3042
    CHARGE:  cpu time    2.9728: real time    2.9972
    --------------------------------------------
      LOOP:  cpu time   34.4994: real time   34.7517

 eigenvalue-minimisations  :     0
 total energy-change (2. order) :-0.2597313E-04  (-0.1098470E-04)
 number of electron     216.0000000 magnetization 
 augmentation part       -0.5049953 magnetization 

 Free energy of the ion-electron system (eV)
  ---------------------------------------------------
  alpha Z        PSCENC =        47.94900195
  Ewald energy   TEWEN  =     42045.44139955
  -Hartree energ DENC   =    -49013.41449633
  -exchange      EXHF   =         0.00000000
  -V(xc)+E(xc)   XCENC  =       647.54951959
  PAW double counting   =    146934.61379436  -146794.36076259
  entropy T*S    EENTRO =        -0.00000000
  eigenvalues    EBANDS =     -2768.36923943
  atomic energy  EATOM  =      8369.52358910
  ---------------------------------------------------
  free energy    TOTEN  =      -531.06719380 eV

  energy without entropy =     -531.06719380  energy(sigma->0) =     -531.06719380


--------------------------------------------------------------------------------------------------------




--------------------------------------- Iteration      1(  19)  ---------------------------------------


    POTLOK:  cpu time    1.9492: real time    1.9617
    SETDIJ:  cpu time    0.2250: real time    0.2258
    TRIAL :  cpu time   19.9796: real time   20.1416
    CORREC:  cpu time    9.2299: real time    9.2932
    CHARGE:  cpu time    2.9753: real time    3.0004
    --------------------------------------------
      LOOP:  cpu time   34.4117: real time   34.6769

 eigenvalue-minimisations  :     0
 total energy-change (2. order) :-0.1044932E-04  (-0.4906908E-05)
 number of electron     216.0000000 magnetization 
 augmentation part       -0.5050150 magnetization 

 Free energy of the ion-electron system (eV)
  ---------------------------------------------------
  alpha Z        PSCENC =        47.94900195
  Ewald energy   TEWEN  =     42045.44139955
  -Hartree energ DENC   =    -49013.41477997
  -exchange      EXHF   =         0.00000000
  -V(xc)+E(xc)   XCENC  =       647.54890039
  PAW double counting   =    146937.97673511  -146797.72309380
  entropy T*S    EENTRO =        -0.00000000
  eigenvalues    EBANDS =     -2768.36895658
  atomic energy  EATOM  =      8369.52358910
  ---------------------------------------------------
  free energy    TOTEN  =      -531.06720425 eV

  energy without entropy =     -531.06720425  energy(sigma->0) =     -531.06720425


--------------------------------------------------------------------------------------------------------




--------------------------------------- Iteration      1(  20)  ---------------------------------------


    POTLOK:  cpu time    1.9387: real time    1.9496
    SETDIJ:  cpu time    0.2349: real time    0.2358
    TRIAL :  cpu time   19.9628: real time   20.1096
    CORREC:  cpu time    9.2267: real time    9.2932
    CHARGE:  cpu time    2.9700: real time    2.9942
    --------------------------------------------
      LOOP:  cpu time   34.3615: real time   34.6163

 eigenvalue-minimisations  :     0
 total energy-change (2. order) :-0.4283153E-05  (-0.1274277E-05)
 number of electron     216.0000000 magnetization 
 augmentation part       -0.5050205 magnetization 

 Free energy of the ion-electron system (eV)
  ---------------------------------------------------
  alpha Z        PSCENC =        47.94900195
  Ewald energy   TEWEN  =     42045.44139955
  -Hartree energ DENC   =    -49013.45024110
  -exchange      EXHF   =         0.00000000
  -V(xc)+E(xc)   XCENC  =       647.55013292
  PAW double counting   =    146948.58725184  -146808.33344966
  entropy T*S    EENTRO =        -0.00000000
  eigenvalues    EBANDS =     -2768.33489314
  atomic energy  EATOM  =      8369.52358910
  ---------------------------------------------------
  free energy    TOTEN  =      -531.06720853 eV

  energy without entropy =     -531.06720853  energy(sigma->0) =     -531.06720853


--------------------------------------------------------------------------------------------------------




--------------------------------------- Iteration      1(  21)  ---------------------------------------


    POTLOK:  cpu time    1.9373: real time    1.9485
    SETDIJ:  cpu time    0.2321: real time    0.2328
    TRIAL :  cpu time   19.9873: real time   20.1456
    CORREC:  cpu time    9.2019: real time    9.3020
    CHARGE:  cpu time    2.9786: real time    2.9999
    --------------------------------------------
      LOOP:  cpu time   34.3806: real time   34.6748

 eigenvalue-minimisations  :     0
 total energy-change (2. order) :-0.1281209E-05  (-0.4610056E-06)
 number of electron     216.0000000 magnetization 
 augmentation part       -0.5050147 magnetization 

 Free energy of the ion-electron system (eV)
  ---------------------------------------------------
  alpha Z        PSCENC =        47.94900195
  Ewald energy   TEWEN  =     42045.44139955
  -Hartree energ DENC   =    -49013.44734165
  -exchange      EXHF   =         0.00000000
  -V(xc)+E(xc)   XCENC  =       647.54962809
  PAW double counting   =    146953.31175589  -146813.05787369
  entropy T*S    EENTRO =        -0.00000000
  eigenvalues    EBANDS =     -2768.33736905
  atomic energy  EATOM  =      8369.52358910
  ---------------------------------------------------
  free energy    TOTEN  =      -531.06720981 eV

  energy without entropy =     -531.06720981  energy(sigma->0) =     -531.06720981


--------------------------------------------------------------------------------------------------------




--------------------------------------- Iteration      1(  22)  ---------------------------------------


    POTLOK:  cpu time    1.9397: real time    1.9501
    SETDIJ:  cpu time    0.2309: real time    0.2316
    TRIAL :  cpu time   19.9768: real time   20.1369
    CORREC:  cpu time    9.2421: real time    9.3066
    CHARGE:  cpu time    2.9807: real time    3.0019
    --------------------------------------------
      LOOP:  cpu time   34.4273: real time   34.6893

 eigenvalue-minimisations  :     0
 total energy-change (2. order) :-0.4255853E-06  (-0.1689404E-06)
 number of electron     216.0000000 magnetization 
 augmentation part       -0.5050084 magnetization 

 Free energy of the ion-electron system (eV)
  ---------------------------------------------------
  alpha Z        PSCENC =        47.94900195
  Ewald energy   TEWEN  =     42045.44139955
  -Hartree energ DENC   =    -49013.44194143
  -exchange      EXHF   =         0.00000000
  -V(xc)+E(xc)   XCENC  =       647.54934036
  PAW double counting   =    146954.16217203  -146813.90832851
  entropy T*S    EENTRO =        -0.00000000
  eigenvalues    EBANDS =     -2768.34244329
  atomic energy  EATOM  =      8369.52358910
  ---------------------------------------------------
  free energy    TOTEN  =      -531.06721024 eV

  energy without entropy =     -531.06721024  energy(sigma->0) =     -531.06721024


--------------------------------------------------------------------------------------------------------




--------------------------------------- Iteration      1(  23)  ---------------------------------------


    POTLOK:  cpu time    1.9376: real time    1.9482
    SETDIJ:  cpu time    0.2376: real time    0.2384
    TRIAL :  cpu time   19.9563: real time   20.1420
    CORREC:  cpu time    9.2247: real time    9.2936
    CHARGE:  cpu time    2.9771: real time    3.0010
    --------------------------------------------
      LOOP:  cpu time   34.3970: real time   34.6882

 eigenvalue-minimisations  :     0
 total energy-change (2. order) :-0.1265726E-06  (-0.5472508E-07)
 number of electron     216.0000000 magnetization 
 augmentation part       -0.5050066 magnetization 

 Free energy of the ion-electron system (eV)
  ---------------------------------------------------
  alpha Z        PSCENC =        47.94900195
  Ewald energy   TEWEN  =     42045.44139955
  -Hartree energ DENC   =    -49013.43924771
  -exchange      EXHF   =         0.00000000
  -V(xc)+E(xc)   XCENC  =       647.54926378
  PAW double counting   =    146954.09134386  -146813.83755969
  entropy T*S    EENTRO =        -0.00000000
  eigenvalues    EBANDS =     -2768.34500120
  atomic energy  EATOM  =      8369.52358910
  ---------------------------------------------------
  free energy    TOTEN  =      -531.06721036 eV

  energy without entropy =     -531.06721036  energy(sigma->0) =     -531.06721036


--------------------------------------------------------------------------------------------------------




--------------------------------------- Iteration      1(  24)  ---------------------------------------


    POTLOK:  cpu time    1.9375: real time    1.9480
    SETDIJ:  cpu time    0.2330: real time    0.2337
    TRIAL :  cpu time   19.9501: real time   20.1304
    CORREC:  cpu time    9.2401: real time    9.3010
    EDDIAG:  cpu time    4.1629: real time    4.1948
    CHARGE:  cpu time    2.9722: real time    2.9933
    --------------------------------------------
      LOOP:  cpu time   38.6003: real time   38.9070

 eigenvalue-minimisations  :     0
 total energy-change (2. order) :-0.2305023E-07  (-0.2449908E-07)
 number of electron     216.0000000 magnetization 
 augmentation part       -0.5050054 magnetization 

 Free energy of the ion-electron system (eV)
  ---------------------------------------------------
  alpha Z        PSCENC =        47.94900195
  Ewald energy   TEWEN  =     42045.44139955
  -Hartree energ DENC   =    -49013.43805401
  -exchange      EXHF   =         0.00000000
  -V(xc)+E(xc)   XCENC  =       647.54922821
  PAW double counting   =    146953.94445117  -146813.69068666
  entropy T*S    EENTRO =        -0.00000000
  eigenvalues    EBANDS =     -2768.34613969
  atomic energy  EATOM  =      8369.52358910
  ---------------------------------------------------
  free energy    TOTEN  =      -531.06721039 eV

  energy without entropy =     -531.06721039  energy(sigma->0) =     -531.06721039


--------------------------------------------------------------------------------------------------------


  average scaling for gradient   0.9867


 average (electrostatic) potential at core
  the test charge radii are     0.5770  0.5955
  (the norm of the test charge is              1.0000)
       1 -88.0709       2 -88.0694       3 -88.0710       4 -88.0706       5 -88.0666
       6 -88.0651       7 -88.0695       8 -88.0658       9 -88.0670      10 -88.0679
      11 -88.0641      12 -88.0652      13 -88.0671      14 -88.0633      15 -88.0638
      16 -88.0666      17 -88.0671      18 -88.0695      19 -88.0675      20 -88.0663
      21 -88.0662      22 -88.0624      23 -88.0687      24 -88.0672      25 -88.0661
      26 -88.0654      27 -88.0634      28 -88.0679      29 -88.0668      30 -88.0627
      31 -88.0655      32 -88.0666      33 -88.0667      34 -88.0670      35 -88.0630
      36 -88.0665      37 -88.0638      38 -88.0680      39 -88.0677      40 -88.0696
      41 -88.0705      42 -88.0711      43 -88.0687      44 -88.0697      45 -88.0660
      46 -88.0653      47 -88.0662      48 -88.0654      49 -88.0693      50 -88.0693
      51 -92.1538      52-124.2823      53-124.2841
 
 
 
 E-fermi :  -4.3576     XC(G=0):  -1.8894     alpha+bet : -1.6890

 Fermi energy:        -4.3575593370

 k-point     1 :       0.0000    0.0000    0.0000
  band No.  band energies     occupation 
      1     -29.2149      2.00000
      2     -28.1884      2.00000
      3     -23.5754      2.00000
      4     -22.5899      2.00000
      5     -22.5891      2.00000
      6     -22.5887      2.00000
      7     -22.5883      2.00000
      8     -22.5879      2.00000
      9     -22.5875      2.00000
     10     -20.6573      2.00000
     11     -20.6572      2.00000
     12     -20.6570      2.00000
     13     -20.6563      2.00000
     14     -20.6558      2.00000
     15     -20.6556      2.00000
     16     -19.7219      2.00000
     17     -19.7217      2.00000
     18     -19.7212      2.00000
     19     -19.7211      2.00000
     20     -19.7202      2.00000
     21     -19.7199      2.00000
     22     -17.5013      2.00000
     23     -17.5008      2.00000
     24     -17.5004      2.00000
     25     -17.5000      2.00000
     26     -17.4991      2.00000
     27     -17.4990      2.00000
     28     -16.3418      2.00000
     29     -16.3418      2.00000
     30     -16.3407      2.00000
     31     -16.3405      2.00000
     32     -16.3401      2.00000
     33     -16.3399      2.00000
     34     -14.9491      2.00000
     35     -14.9490      2.00000
     36     -14.9483      2.00000
     37     -14.9481      2.00000
     38     -14.9479      2.00000
     39     -14.9475      2.00000
     40     -13.1676      2.00000
     41     -12.4908      2.00000
     42     -12.4906      2.00000
     43     -12.4901      2.00000
     44     -12.4900      2.00000
     45     -12.4888      2.00000
     46     -12.4885      2.00000
     47     -12.2721      2.00000
     48     -12.2720      2.00000
     49     -12.2710      2.00000
     50     -12.2708      2.00000
     51     -12.2702      2.00000
     52     -12.2701      2.00000
     53     -11.8901      2.00000
     54     -11.6343      2.00000
     55     -11.6333      2.00000
     56     -10.9362      2.00000
     57     -10.8262      2.00000
     58     -10.8260      2.00000
     59     -10.8244      2.00000
     60     -10.8240      2.00000
     61     -10.8239      2.00000
     62     -10.8237      2.00000
     63      -9.7632      2.00000
     64      -9.7626      2.00000
     65      -9.7625      2.00000
     66      -9.7617      2.00000
     67      -9.7615      2.00000
     68      -9.7614      2.00000
     69      -9.5258      2.00000
     70      -9.5256      2.00000
     71      -9.5254      2.00000
     72      -9.5247      2.00000
     73      -9.5243      2.00000
     74      -9.5238      2.00000
     75      -9.5236      2.00000
     76      -9.5226      2.00000
     77      -9.5222      2.00000
     78      -9.5220      2.00000
     79      -9.5218      2.00000
     80      -9.5214      2.00000
     81      -8.0391      2.00000
     82      -8.0375      2.00000
     83      -7.8195      2.00000
     84      -7.8180      2.00000
     85      -7.8176      2.00000
     86      -7.8171      2.00000
     87      -7.8151      2.00000
     88      -7.8143      2.00000
     89      -7.5214      2.00000
     90      -7.5211      2.00000
     91      -7.5209      2.00000
     92      -7.5206      2.00000
     93      -7.5202      2.00000
     94      -7.5199      2.00000
     95      -6.5770      2.00000
     96      -6.5767      2.00000
     97      -6.5764      2.00000
     98      -6.5760      2.00000
     99      -6.5755      2.00000
    100      -6.5753      2.00000
    101      -6.3019      2.00000
    102      -6.2996      2.00000
    103      -4.4796      2.00000
    104      -4.4792      2.00000
    105      -4.4785      2.00000
    106      -4.4784      2.00000
    107      -4.4779      2.00000
    108      -4.4779      2.00000
    109      -1.5033      0.00000
    110      -1.5032      0.00000
    111      -1.5030      0.00000
    112      -1.5028      0.00000
    113      -1.5020      0.00000
    114      -1.5017      0.00000
    115       0.4763      0.00000
    116       0.4767      0.00000
    117       0.4770      0.00000
    118       0.4774      0.00000
    119       0.4775      0.00000
    120       0.4793      0.00000
    121       0.6468      0.00000
    122       0.9611      0.00000
    123       1.2409      0.00000
    124       1.2417      0.00000
    125       1.4433      0.00000
    126       1.7570      0.00000
    127       1.9674      0.00000
    128       1.9794      0.00000
    129       1.9812      0.00000
    130       1.9875      0.00000
    131       1.9907      0.00000
    132       1.9920      0.00000
    133       2.1822      0.00000
    134       2.3541      0.00000
    135       2.3543      0.00000
    136       2.3546      0.00000
    137       2.3550      0.00000
    138       2.3552      0.00000
    139       2.3557      0.00000
    140       2.3997      0.00000
    141       2.5824      0.00000
    142       2.6869      0.00000
    143       2.7077      0.00000
    144       2.7190      0.00000
    145       2.7240      0.00000
    146       2.7302      0.00000
    147       2.7517      0.00000
    148       2.7878      0.00000
    149       2.8078      0.00000
    150       2.8182      0.00000
    151       2.8305      0.00000
    152       3.1504      0.00000
    153       3.5739      0.00000
    154       3.7386      0.00000
    155       3.9446      0.00000
    156       4.0498      0.00000
    157       4.2591      0.00000
    158       4.3982      0.00000
    159       4.4803      0.00000
    160       4.5254      0.00000
    161       4.8264      0.00000
    162       4.8553      0.00000
    163       4.9167      0.00000
    164       4.9478      0.00000
    165       4.9555      0.00000
    166       4.9599      0.00000
    167       4.9616      0.00000
    168       4.9909      0.00000


--------------------------------------------------------------------------------------------------------


 soft charge-density along one line, spin component           1
         0         1         2         3         4         5         6         7         8         9
 total charge-density along one line
 
 pseudopotential strength for first ion, spin component:           1
 12.643  21.273  -0.000   0.000   0.000  -0.000   0.000   0.000
 21.273  35.792  -0.000   0.000   0.000  -0.000   0.000   0.000
 -0.000  -0.000  -3.239   0.000   0.000  -5.803   0.000   0.000
  0.000   0.000   0.000  -3.243   0.000   0.000  -5.810   0.000
  0.000   0.000   0.000   0.000  -3.239   0.000   0.000  -5.804
 -0.000  -0.000  -5.803   0.000   0.000 -10.375   0.000   0.000
  0.000   0.000   0.000  -5.810   0.000   0.000 -10.385   0.000
  0.000   0.000   0.000   0.000  -5.804   0.000   0.000 -10.375
 total augmentation occupancy for first ion, spin component:           1
  9.643  -3.599   0.000  -0.002  -0.001  -0.000   0.001   0.000
 -3.599   1.374  -0.000   0.001   0.000   0.000  -0.000  -0.000
  0.000  -0.000   8.197  -0.009   0.001  -2.896   0.003  -0.000
 -0.002   0.001  -0.009   3.784  -0.000   0.003  -1.107   0.000
 -0.001   0.000   0.001  -0.000   8.196  -0.000   0.000  -2.895
 -0.000   0.000  -2.896   0.003  -0.000   1.036  -0.001   0.000
  0.001  -0.000   0.003  -1.107   0.000  -0.001   0.329  -0.000
  0.000  -0.000  -0.000   0.000  -2.895   0.000  -0.000   1.035


------------------------ aborting loop because EDIFF is reached ----------------------------------------


    FORLOC:  cpu time    0.1401: real time    0.1411
    FORNL :  cpu time    3.7761: real time    3.8179
    FORCOR:  cpu time    1.9248: real time    1.9351
    OFIELD:  cpu time    0.0029: real time    0.0029

 VOLUME and BASIS-vectors are now :
 -----------------------------------------------------------------------------
  energy-cutoff  :     1000.00
  volume of cell :     3288.85
      direct lattice vectors                 reciprocal lattice vectors
    12.325000000  0.000000000  0.000000000     0.081135903  0.046843835  0.000000000
    -6.162500000 10.673763102  0.000000000     0.000000000  0.093687670  0.000000000
     0.000000000  0.000000000 25.000000000     0.000000000  0.000000000  0.040000000

  length of vectors
    12.325000000 12.325000000 25.000000000     0.093687670  0.093687670  0.040000000


 FORCES acting on ions:
    Electron-Ion                     Ewald-Force                    Non-Local-Force
 -----------------------------------------------------------------------------------------------
   0.109E+01 0.944E+00 0.167E+02   -.108E+01 -.950E+00 -.167E+02   -.345E-02 0.610E-02 0.852E-02
   0.150E+01 0.771E+00 0.180E+02   -.150E+01 -.779E+00 -.180E+02   -.309E-02 0.124E-01 -.473E-02
   0.596E+00 0.164E+01 0.183E+02   -.605E+00 -.165E+01 -.183E+02   0.954E-02 0.189E-01 0.242E-03
   0.754E+00 0.109E+01 0.211E+02   -.758E+00 -.110E+01 -.210E+02   0.205E-01 0.167E-01 -.158E-01
   0.119E+01 0.289E+00 0.171E+02   -.118E+01 -.299E+00 -.171E+02   -.117E-01 0.859E-02 0.436E-02
   0.121E+01 -.271E+00 0.173E+02   -.121E+01 0.265E+00 -.173E+02   -.110E-01 0.145E-01 -.453E-02
   0.146E+01 0.579E+00 0.209E+02   -.147E+01 -.592E+00 -.209E+02   0.133E-01 -.161E-03 -.588E-02
   0.146E+01 -.502E+00 0.221E+02   -.147E+01 0.493E+00 -.220E+02   -.592E-02 0.114E-01 -.360E-02
   -.742E+00 0.156E+01 0.187E+02   0.734E+00 -.156E+01 -.187E+02   0.170E-01 -.803E-02 -.496E-02
   -.988E+00 0.837E+00 0.212E+02   0.982E+00 -.845E+00 -.212E+02   -.128E-01 0.243E-01 0.331E-02
   0.315E+00 -.323E+00 0.162E+02   -.310E+00 0.324E+00 -.162E+02   0.192E-02 -.427E-02 -.145E-02
   0.292E+00 -.243E+00 0.159E+02   -.298E+00 0.249E+00 -.159E+02   0.477E-03 -.597E-02 0.554E-02
   0.479E+00 -.118E+01 0.231E+02   -.484E+00 0.118E+01 -.230E+02   0.307E-01 0.219E-02 0.111E-02
   0.302E+00 -.172E+01 0.198E+02   -.305E+00 0.173E+01 -.198E+02   0.187E-02 0.687E-02 -.160E-01
   -.110E+01 0.659E+00 0.167E+02   0.110E+01 -.663E+00 -.167E+02   0.664E-02 -.111E-02 0.714E-02
   -.141E+01 0.402E+00 0.171E+02   0.141E+01 -.403E+00 -.170E+02   -.278E-02 0.714E-02 -.106E-01
   -.204E+00 -.694E-01 0.154E+02   0.204E+00 0.794E-01 -.154E+02   0.522E-02 -.161E-01 0.255E-02
   0.837E-01 0.697E+00 0.156E+02   -.897E-01 -.689E+00 -.156E+02   0.612E-02 -.105E-01 0.115E-01
   -.280E+00 -.165E+01 0.181E+02   0.284E+00 0.166E+01 -.181E+02   -.155E-02 -.108E-01 -.287E-02
   -.157E+00 -.101E+01 0.164E+02   0.164E+00 0.101E+01 -.164E+02   -.149E-01 -.974E-02 0.438E-03
   0.154E+01 -.670E+00 0.190E+02   -.154E+01 0.665E+00 -.190E+02   -.391E-02 0.775E-02 -.212E-01
   0.109E+01 -.881E+00 0.178E+02   -.109E+01 0.881E+00 -.178E+02   -.437E-02 0.666E-02 -.959E-04
   -.276E+00 0.463E+00 0.232E+02   0.263E+00 -.472E+00 -.232E+02   0.128E-02 0.255E-01 0.380E-02
   -.377E+00 -.753E+00 0.231E+02   0.375E+00 0.744E+00 -.231E+02   0.185E-01 -.499E-02 -.983E-02
   0.591E+00 -.214E+00 0.163E+02   -.593E+00 0.218E+00 -.163E+02   0.106E-01 -.102E-01 -.664E-02
   0.156E+00 0.515E+00 0.161E+02   -.166E+00 -.509E+00 -.161E+02   0.935E-02 -.428E-02 0.738E-02
   -.170E+01 0.188E+00 0.192E+02   0.170E+01 -.194E+00 -.192E+02   0.190E-01 0.125E-01 -.553E-03
   -.160E+01 -.648E+00 0.185E+02   0.160E+01 0.648E+00 -.185E+02   -.892E-02 0.791E-02 -.476E-02
   0.608E+00 -.125E+01 0.180E+02   -.608E+00 0.125E+01 -.180E+02   0.476E-02 0.124E-02 -.124E-01
   0.556E-01 -.549E+00 0.166E+02   -.572E-01 0.553E+00 -.166E+02   -.558E-02 -.817E-03 -.640E-03
   -.114E+01 -.115E+01 0.198E+02   0.114E+01 0.115E+01 -.198E+02   -.120E-01 -.101E-01 -.164E-01
   -.827E+00 -.157E+01 0.180E+02   0.835E+00 0.157E+01 -.180E+02   -.691E-02 -.126E-01 0.246E-03
   0.813E-01 0.332E+00 0.158E+02   -.695E-01 -.336E+00 -.158E+02   -.119E-01 -.159E-04 0.873E-02
   0.206E+00 0.299E+00 0.160E+02   -.201E+00 -.304E+00 -.160E+02   -.143E-01 0.128E-01 -.255E-02
   -.739E+00 0.134E+00 0.163E+02   0.747E+00 -.138E+00 -.163E+02   -.378E-02 0.207E-02 0.867E-02
   -.659E+00 -.302E+00 0.162E+02   0.659E+00 0.302E+00 -.162E+02   -.488E-02 0.166E-02 -.339E-03
   -.125E+01 -.666E+00 0.166E+02   0.125E+01 0.670E+00 -.166E+02   -.121E-02 -.863E-02 0.530E-02
   -.830E+00 -.655E+00 0.160E+02   0.831E+00 0.665E+00 -.160E+02   -.369E-02 -.133E-01 0.881E-02
   -.752E+00 -.943E+00 0.163E+02   0.755E+00 0.957E+00 -.163E+02   -.838E-02 -.169E-01 0.587E-02
   -.107E+00 -.257E+00 0.157E+02   0.114E+00 0.265E+00 -.157E+02   -.607E-02 -.120E-01 0.948E-02
   0.286E+00 0.722E+00 0.157E+02   -.287E+00 -.716E+00 -.158E+02   -.338E-02 -.770E-02 0.910E-02
   0.861E+00 0.131E+01 0.167E+02   -.861E+00 -.131E+01 -.167E+02   0.296E-03 0.389E-03 0.973E-02
   0.857E-01 0.118E+01 0.161E+02   -.917E-01 -.118E+01 -.161E+02   0.143E-01 -.589E-02 0.354E-02
   -.190E-01 0.171E+01 0.176E+02   0.908E-02 -.172E+01 -.177E+02   0.811E-02 0.263E-02 0.670E-02
   -.233E+00 0.421E+00 0.164E+02   0.229E+00 -.423E+00 -.164E+02   0.136E-01 -.410E-02 -.146E-02
   -.830E+00 0.103E+01 0.170E+02   0.823E+00 -.103E+01 -.170E+02   0.462E-02 -.609E-03 -.357E-02
   -.223E+00 -.521E+00 0.162E+02   0.230E+00 0.522E+00 -.163E+02   -.430E-02 -.309E-02 0.390E-02
   -.462E+00 0.167E+00 0.158E+02   0.468E+00 -.164E+00 -.158E+02   -.157E-01 0.216E-02 -.499E-02
   0.549E-01 -.314E+00 0.158E+02   -.462E-01 0.320E+00 -.158E+02   -.971E-02 -.107E-01 0.791E-02
   0.520E+00 0.365E+00 0.158E+02   -.512E+00 -.362E+00 -.158E+02   -.153E-01 0.192E-02 0.518E-02
   0.364E-02 0.177E-01 -.220E+03   -.450E-02 -.206E-01 0.220E+03   -.172E-01 0.168E-01 -.339E-02
   -.228E+03 0.155E+03 -.343E+03   0.279E+03 -.190E+03 0.346E+03   -.527E+02 0.359E+02 -.354E+01
   0.228E+03 -.155E+03 -.321E+03   -.279E+03 0.190E+03 0.318E+03   0.528E+02 -.359E+02 0.318E+01
 -----------------------------------------------------------------------------------------------
   -.189E-01 0.422E-02 0.375E+00   0.171E-12 -.114E-12 -.568E-13   0.149E-01 0.318E-01 -.363E+00
 
 
 POSITION                                       TOTAL-FORCE (eV/Angst)
 -----------------------------------------------------------------------------------
     11.98348      0.00342      0.01417        -0.006747      0.005812     -0.000669
     -0.34154      1.42665      0.01100        -0.013789      0.018305     -0.002681
      2.12355      0.00315      0.01249         0.009610      0.017730     -0.006410
      2.12326      1.42653      0.00641         0.028194      0.019309     -0.007393
     10.75099      2.13819      0.01213        -0.007615      0.016202      0.000151
     -1.57382      3.56123      0.01110        -0.026525      0.013670     -0.002474
      0.89078      2.13854      0.00548         0.010166      0.010676      0.003472
      0.89099      3.56147      0.00181        -0.011002      0.011331      0.013951
      4.58864      0.00346      0.01135         0.026029     -0.018742     -0.003071
      4.58894      1.42623      0.00646         0.003122      0.028462      0.014542
      9.51854      4.27281      0.01369         0.016236      0.000817     -0.001097
     -2.80632      5.69591      0.01434        -0.006204     -0.017213     -0.000296
      2.12300      4.27302      0.00000         0.023501      0.016013      0.023207
      2.12335      5.69594      0.00581         0.003873      0.004951     -0.000998
      7.05344      0.00333      0.01399         0.008486     -0.015655     -0.001629
      7.05353      1.42635      0.01368        -0.003026      0.013869     -0.006735
      8.28610      6.40752      0.01601         0.017678     -0.021078     -0.000683
     -4.03885      7.83070      0.01636         0.007164     -0.018833      0.000156
      3.35586      6.40753      0.01007        -0.014955     -0.011461     -0.003071
      3.35599      7.83072      0.01320        -0.018109     -0.008216      0.000128
     -0.34146      4.27290      0.00723         0.000148      0.019718     -0.005748
     -0.34138      5.69591      0.00946        -0.012962      0.003596      0.000340
      3.35624      2.13791      0.00222        -0.005737      0.033415      0.018132
      3.35573      3.56155      0.00139         0.032882     -0.008453      0.010210
     -1.57395      6.40758      0.01311         0.025181     -0.014970     -0.002381
     -1.57385      7.83068      0.01438         0.009611     -0.002990      0.000448
      5.82093      2.13784      0.01033         0.020429      0.007002     -0.001421
      5.82114      3.56097      0.01156         0.000969      0.001773     -0.007010
      0.89092      6.40755      0.00907         0.004103      0.000072     -0.004739
      0.89106      7.83068      0.01235        -0.007642      0.008612      0.001363
      4.58871      4.27293      0.00850        -0.024396     -0.003421     -0.012014
      4.58852      5.69606      0.01149         0.001112     -0.024357     -0.005291
      9.51845      0.00337      0.01490        -0.017249     -0.006341      0.000246
      9.51855      1.42644      0.01438        -0.030669      0.020090     -0.001033
      8.28593      2.13803      0.01453         0.002457     -0.000240      0.001484
      8.28613      3.56115      0.01464        -0.012893     -0.004072     -0.002727
      7.05356      4.27269      0.01457         0.003686     -0.008428      0.000060
      7.05362      5.69588      0.01553        -0.002137     -0.028779     -0.000972
      5.82112      6.40755      0.01489        -0.015646     -0.018077      0.000056
      5.82102      7.83073      0.01579        -0.005195     -0.020054      0.000216
      7.05363      8.54227      0.01631        -0.003538     -0.011090      0.001446
     -5.27149      9.96549      0.01495         0.001379     -0.001451     -0.002210
     -2.80638      8.54234      0.01558         0.028251     -0.015209     -0.000765
     -2.80627      9.96553      0.01362         0.016558      0.003860     -0.003629
     -0.34149      8.54239      0.01378         0.022952     -0.017328     -0.001735
     -0.34138      9.96550      0.01354         0.010768      0.010127     -0.002712
      2.12343      8.54232      0.01336        -0.013009     -0.014132     -0.000964
      2.12354      9.96544      0.01469        -0.023790      0.013531     -0.002925
      4.58846      8.54235      0.01505        -0.019797     -0.016512      0.001750
      4.58853      9.96550      0.01517        -0.024645      0.006805      0.000857
      3.04930      2.68154      7.49154        -0.034947      0.022935      0.040782
      4.02070      2.02068      7.55596        -1.656760      1.108689     -0.122002
      2.07767      3.34267      7.43208         1.684439     -1.110276      0.084484
 -----------------------------------------------------------------------------------
    total drift:                               -0.003941      0.036024      0.012160


--------------------------------------------------------------------------------------------------------



  FREE ENERGIE OF THE ION-ELECTRON SYSTEM (eV)
  ---------------------------------------------------
  free  energy   TOTEN  =      -531.06721039 eV

  energy  without entropy=     -531.06721039  energy(sigma->0) =     -531.06721039
 


--------------------------------------------------------------------------------------------------------


    POTLOK:  cpu time    2.1888: real time    2.2093


--------------------------------------------------------------------------------------------------------


 writing wavefunctions
     LOOP+:  cpu time  867.0977: real time  874.4976
    4ORBIT:  cpu time    0.0000: real time    0.0000

 total amount of memory used by VASP MPI-rank0   698619. kBytes
=======================================================================

   base      :      30000. kBytes
   nonl-proj :     230539. kBytes
   fftplans  :      40716. kBytes
   grid      :     363125. kBytes
   one-center:        162. kBytes
   wavefun   :      34077. kBytes
 
  
  
 General timing and accounting informations for this job:
 ========================================================
  
                  Total CPU time used (sec):      911.307
                            User time (sec):      884.704
                          System time (sec):       26.603
                         Elapsed time (sec):      920.129
  
                   Maximum memory used (kb):     1244032.
                   Average memory used (kb):          N/A
  
                          Minor page faults:       142621
                          Major page faults:           71
                 Voluntary context switches:         3535
