 vasp.6.2.1 16May21 (build Nov 06 2021 14:46:37) complex                        
  
 executed on             LinuxIFC date 2025.04.16  18:22:28
 running on  112 total cores
 distrk:  each k-point on   56 cores,    2 groups
 distr:  one band on NCORE=   1 cores,   56 groups


--------------------------------------------------------------------------------------------------------


 INCAR:
   ALGO = Conjugate
   KPAR = 2
   NCORE = 32
   ISMEAR = 0
   SIGMA = 0.01
   PREC = Accurate
   EDIFF = 1E-7
   ENCUT = 1000
   ISIF = 0
   METAGGA = SCAN
   LASPH = .TRUE.
   SYMPREC = 1E-7

 POTCAR:    PAW_PBE C_h 06Feb2004                 
 POTCAR:    PAW_PBE O_h 06Feb2004                 
 -----------------------------------------------------------------------------
|                                                                             |
|           W    W    AA    RRRRR   N    N  II  N    N   GGGG   !!!           |
|           W    W   A  A   R    R  NN   N  II  NN   N  G    G  !!!           |
|           W    W  A    A  R    R  N N  N  II  N N  N  G       !!!           |
|           W WW W  AAAAAA  RRRRR   N  N N  II  N  N N  G  GGG   !            |
|           WW  WW  A    A  R   R   N   NN  II  N   NN  G    G                |
|           W    W  A    A  R    R  N    N  II  N    N   GGGG   !!!           |
|                                                                             |
|     The value NCORE = 32 specified in the INCAR file was overwritten,       |
|     because it was not compatible with the 56 processes available:          |
|     NCORE = 1                                                               |
|     was used instead, please check that this makes sense for your           |
|     machine.                                                                |
|                                                                             |
 -----------------------------------------------------------------------------

 -----------------------------------------------------------------------------
|                                                                             |
|           W    W    AA    RRRRR   N    N  II  N    N   GGGG   !!!           |
|           W    W   A  A   R    R  NN   N  II  NN   N  G    G  !!!           |
|           W    W  A    A  R    R  N N  N  II  N N  N  G       !!!           |
|           W WW W  AAAAAA  RRRRR   N  N N  II  N  N N  G  GGG   !            |
|           WW  WW  A    A  R   R   N   NN  II  N   NN  G    G                |
|           W    W  A    A  R    R  N    N  II  N    N   GGGG   !!!           |
|                                                                             |
|     For optimal performance we recommend to set                             |
|       NCORE = 2 up to number-of-cores-per-socket                            |
|     NCORE specifies how many cores store one orbital (NPAR=cpu/NCORE).      |
|     This setting can greatly improve the performance of VASP for DFT.       |
|     The default, NCORE=1 might be grossly inefficient on modern             |
|     multi-core architectures or massively parallel machines. Do your        |
|     own testing! More info at https://www.vasp.at/wiki/index.php/NCORE      |
|     Unfortunately you need to use the default for GW and RPA                |
|     calculations (for HF NCORE is supported but not extensively tested      |
|     yet).                                                                   |
|                                                                             |
 -----------------------------------------------------------------------------

 POTCAR:    PAW_PBE C_h 06Feb2004                 
   VRHFIN =C: s2p2                                                                                  
   LEXCH  = PE                                                                                      
   EATOM  =   147.1560 eV,   10.8157 Ry                                                             
                                                                                                    
   TITEL  = PAW_PBE C_h 06Feb2004                                                                   
   LULTRA =        F    use ultrasoft PP ?                                                          
   IUNSCR =        1    unscreen: 0-lin 1-nonlin 2-no                                               
   RPACOR =    0.800    partial core radius                                                         
   POMASS =   12.011; ZVAL   =    4.000    mass and valenz                                          
   RCORE  =    1.100    outmost cutoff radius                                                       
   RWIGS  =    1.630; RWIGS  =    0.863    wigner-seitz radius (au A)                               
   ENMAX  =  700.000; ENMIN  =  500.000 eV                                                          
   ICORE  =        2    local potential                                                             
   LCOR   =        T    correct aug charges                                                         
   LPAW   =        T    paw PP                                                                      
   EAUG   =  946.768                                                                                
   DEXC   =    0.000                                                                                
   RMAX   =    1.128    core radius for proj-oper                                                   
   RAUG   =    1.300    factor for augmentation sphere                                              
   RDEP   =    1.162    radius for radial grids                                                     
   RDEPT  =    1.088    core radius for aug-charge                                                  
                                                                                                    
   Atomic configuration                                                                             
    4 entries                                                                                       
     n  l   j            E        occ.                                                              
     1  0  0.50      -273.3789   2.0000                                                             
     2  0  0.50       -13.7508   2.0000                                                             
     2  1  0.50        -5.2854   2.0000                                                             
     3  2  1.50        -5.4423   0.0000                                                             
   Description                                                                                      
     l       E           TYP  RCUT    TYP  RCUT                                                     
     0    -13.7508458     23  1.100                                                                 
     0     -8.2022199     23  1.100                                                                 
     1     -5.2854383     23  1.100                                                                 
     1      1.1560700     23  1.100                                                                 
     2     -5.4423304      7  1.100                                                                 
  local pseudopotential read in
  partial core-charges read in
  partial kinetic energy density read in
  atomic valenz-charges read in
  non local Contribution for L=           0  read in
    real space projection operators read in
  non local Contribution for L=           0  read in
    real space projection operators read in
  non local Contribution for L=           1  read in
    real space projection operators read in
  non local Contribution for L=           1  read in
    real space projection operators read in
    PAW grid and wavefunctions read in
 
   number of l-projection  operators is LMAX  =           4
   number of lm-projection operators is LMMAX =           8
 
 POTCAR:    PAW_PBE O_h 06Feb2004                 
   VRHFIN =O: s2p4                                                                                  
   LEXCH  = PE                                                                                      
   EATOM  =   432.3788 eV,   31.7789 Ry                                                             
                                                                                                    
   TITEL  = PAW_PBE O_h 06Feb2004                                                                   
   LULTRA =        F    use ultrasoft PP ?                                                          
   IUNSCR =        1    unscreen: 0-lin 1-nonlin 2-no                                               
   RPACOR =    0.800    partial core radius                                                         
   POMASS =   16.000; ZVAL   =    6.000    mass and valenz                                          
   RCORE  =    1.100    outmost cutoff radius                                                       
   RWIGS  =    1.400; RWIGS  =    0.741    wigner-seitz radius (au A)                               
   ENMAX  =  700.000; ENMIN  =  500.000 eV                                                          
   ICORE  =        2    local potential                                                             
   LCOR   =        T    correct aug charges                                                         
   LPAW   =        T    paw PP                                                                      
   EAUG   =  888.804                                                                                
   DEXC   =    0.000                                                                                
   RMAX   =    1.128    core radius for proj-oper                                                   
   RAUG   =    1.300    factor for augmentation sphere                                              
   RDEP   =    1.125    radius for radial grids                                                     
   RDEPT  =    1.088    core radius for aug-charge                                                  
                                                                                                    
   Atomic configuration                                                                             
    4 entries                                                                                       
     n  l   j            E        occ.                                                              
     1  0  0.50      -514.6923   2.0000                                                             
     2  0  0.50       -23.9615   2.0000                                                             
     2  1  0.50        -9.0305   4.0000                                                             
     3  2  1.50        -9.5241   0.0000                                                             
   Description                                                                                      
     l       E           TYP  RCUT    TYP  RCUT                                                     
     0    -23.9615319     23  1.100                                                                 
     0    -25.3221145     23  1.100                                                                 
     1     -9.0304911     23  1.100                                                                 
     1     -5.4802209     23  1.100                                                                 
     2     -9.5240782      7  1.100                                                                 
  local pseudopotential read in
  partial core-charges read in
  partial kinetic energy density read in
  atomic valenz-charges read in
  non local Contribution for L=           0  read in
    real space projection operators read in
  non local Contribution for L=           0  read in
    real space projection operators read in
  non local Contribution for L=           1  read in
    real space projection operators read in
  non local Contribution for L=           1  read in
    real space projection operators read in
    PAW grid and wavefunctions read in
 
   number of l-projection  operators is LMAX  =           4
   number of lm-projection operators is LMMAX =           8
 
 -----------------------------------------------------------------------------
|                                                                             |
|               ----> ADVICE to this user running VASP <----                  |
|                                                                             |
|     You have a (more or less) 'large supercell' and for larger cells it     |
|     might be more efficient to use real-space projection operators.         |
|     Therefore, try LREAL= Auto in the INCAR file.                           |
|     Mind: For very accurate calculation, you might also keep the            |
|     reciprocal projection scheme (i.e. LREAL=.FALSE.).                      |
|                                                                             |
 -----------------------------------------------------------------------------

  PAW_PBE C_h 06Feb2004                 :
 energy of atom  1       EATOM= -147.1560
 kinetic energy error for atom=    0.0031 (will be added to EATOM!!)
  PAW_PBE O_h 06Feb2004                 :
 energy of atom  2       EATOM= -432.3788
 kinetic energy error for atom=    0.0171 (will be added to EATOM!!)
 
 
 POSCAR:  C  O
  positions in cartesian coordinates
  No initial velocities read in

 METAGGA = SCAN     LMAXTAU =  6    LMIXTAU =  F

 exchange correlation table for  LEXCH =        8
   RHO(1)=    0.500       N(1)  =     2000
   RHO(2)=  100.500       N(2)  =     4000
 


--------------------------------------------------------------------------------------------------------


 ion  position               nearest neighbor table
   1  0.972  0.000  0.001-  50 1.42   2 1.42  42 1.42
   2  0.039  0.134  0.000-   5 1.42   7 1.42   1 1.42
   3  0.172  0.000  0.000-  42 1.42  44 1.42   4 1.42
   4  0.239  0.134  0.000-   7 1.42   3 1.42  23 1.42
   5  0.972  0.200  0.000-   6 1.42   2 1.42  34 1.42
   6  0.039  0.334  0.000-   5 1.42  21 1.42  11 1.42
   7  0.172  0.200  0.000-   8 1.42   2 1.42   4 1.42
   8  0.239  0.334  0.000-  13 1.42   7 1.42  21 1.42
   9  0.372  0.000  0.000-  10 1.42  44 1.42  46 1.42
  10  0.439  0.134  0.000-  27 1.42   9 1.42  23 1.42
  11  0.972  0.400  0.001-  12 1.42  36 1.42   6 1.42
  12  0.039  0.534  0.001-  25 1.42  11 1.42  17 1.42
  13  0.372  0.400  0.000-   8 1.42  14 1.42  24 1.42
  14  0.439  0.534  0.000-  13 1.42  29 1.42  19 1.42
  15  0.572  0.000  0.001-  46 1.42  16 1.42  48 1.42
  16  0.639  0.134  0.001-  15 1.42  35 1.42  27 1.42
  17  0.972  0.600  0.001-  38 1.42  18 1.42  12 1.42
  18  0.039  0.734  0.001-  43 1.42  41 1.42  17 1.42
  19  0.572  0.600  0.000-  14 1.42  20 1.42  32 1.42
  20  0.639  0.734  0.001-  49 1.42  19 1.42  47 1.42
  21  0.172  0.400  0.000-  22 1.42   8 1.42   6 1.42
  22  0.239  0.534  0.000-  21 1.42  29 1.42  25 1.42
  23  0.372  0.200  0.000-  10 1.42   4 1.42  24 1.42
  24  0.439  0.334  0.000-  13 1.42  31 1.42  23 1.42
  25  0.172  0.600  0.001-  26 1.42  12 1.42  22 1.42
  26  0.239  0.734  0.001-  25 1.42  45 1.42  43 1.42
  27  0.572  0.200  0.000-  10 1.42  28 1.42  16 1.42
  28  0.639  0.334  0.000-  27 1.42  37 1.42  31 1.42
  29  0.372  0.600  0.000-  22 1.42  14 1.42  30 1.42
  30  0.439  0.734  0.000-  47 1.42  29 1.42  45 1.42
  31  0.572  0.400  0.000-  32 1.42  28 1.42  24 1.42
  32  0.639  0.534  0.000-  31 1.42  39 1.42  19 1.42
  33  0.772  0.000  0.001-  34 1.42  48 1.42  50 1.42
  34  0.839  0.134  0.001-  33 1.42   5 1.42  35 1.42
  35  0.772  0.200  0.001-  36 1.42  16 1.42  34 1.42
  36  0.839  0.334  0.001-  35 1.42  11 1.42  37 1.42
  37  0.772  0.400  0.001-  28 1.42  38 1.42  36 1.42
  38  0.839  0.534  0.001-  17 1.42  37 1.42  39 1.42
  39  0.772  0.600  0.001-  40 1.42  38 1.42  32 1.42
  40  0.839  0.734  0.001-  39 1.42  49 1.42  41 1.42
  41  0.972  0.800  0.001-  18 1.42  42 1.42  40 1.42
  42  0.039  0.934  0.001-   3 1.42  41 1.42   1 1.42
  43  0.172  0.800  0.001-  18 1.42  44 1.42  26 1.42
  44  0.239  0.934  0.001-   9 1.42  43 1.42   3 1.42
  45  0.372  0.800  0.001-  26 1.42  46 1.42  30 1.42
  46  0.439  0.934  0.001-  15 1.42  45 1.42   9 1.42
  47  0.572  0.800  0.001-  30 1.42  48 1.42  20 1.42
  48  0.639  0.934  0.001-  47 1.42  33 1.42  15 1.42
  49  0.772  0.800  0.001-  50 1.42  20 1.42  40 1.42
  50  0.839  0.934  0.001-  49 1.42   1 1.42  33 1.42
  51  0.373  0.251  0.106-  52 1.18  53 1.18
  52  0.421  0.189  0.109-  51 1.18
  53  0.325  0.313  0.104-  51 1.18
 
  LATTYP: Found a hexagonal cell.
 ALAT       =    12.3250000000
 C/A-ratio  =     2.0283975659
  
  Lattice vectors:
  
 A1 = (  12.3250000000,   0.0000000000,   0.0000000000)
 A2 = (  -6.1625000000,  10.6737631016,   0.0000000000)
 A3 = (   0.0000000000,   0.0000000000,  25.0000000000)


Analysis of symmetry for initial positions (statically):
=====================================================================
 Subroutine PRICEL returns:
 Original cell was already a primitive cell.
 

 Routine SETGRP: Setting up the symmetry group for a 
 hexagonal supercell.


 Subroutine GETGRP returns: Found  1 space group operations
 (whereof  1 operations were pure point group operations)
 out of a pool of 24 trial point group operations.


The static configuration has the point symmetry C_1 .


Analysis of symmetry for dynamics (positions and initial velocities):
=====================================================================
 Subroutine PRICEL returns:
 Original cell was already a primitive cell.
 

 Routine SETGRP: Setting up the symmetry group for a 
 hexagonal supercell.


 Subroutine GETGRP returns: Found  1 space group operations
 (whereof  1 operations were pure point group operations)
 out of a pool of 24 trial point group operations.


The dynamic configuration has the point symmetry C_1 .


 Subroutine INISYM returns: Found  1 space group operations
 (whereof  1 operations are pure point group operations),
 and found     1 'primitive' translations


----------------------------------------------------------------------------------------

                                     Primitive cell                                     

  volume of cell :    3288.8533

  direct lattice vectors                    reciprocal lattice vectors
    12.325000000  0.000000000  0.000000000     0.081135903  0.046843835  0.000000000
    -6.162500000 10.673763102  0.000000000     0.000000000  0.093687670  0.000000000
     0.000000000  0.000000000 25.000000000     0.000000000  0.000000000  0.040000000

  length of vectors
    12.325000000 12.325000000 25.000000000     0.093687670  0.093687670  0.040000000

  position of ions in fractional coordinates (direct lattice)
     0.972450841  0.000320818  0.000566711
     0.039118382  0.133659505  0.000440173
     0.172443627  0.000295449  0.000499628
     0.239096278  0.133647917  0.000256468
     0.972452058  0.200322012  0.000485219
     0.039128360  0.333643771  0.000444150
     0.172451764  0.200354552  0.000219167
     0.239124359  0.333665720  0.000072260
     0.372465565  0.000324403  0.000453913
     0.439137473  0.133619939  0.000258338
     0.972449824  0.400309362  0.000547611
     0.039124981  0.533636789  0.000573410
     0.372416176  0.400329481  0.000000000
     0.439099602  0.533638981  0.000232414
     0.572443676  0.000312125  0.000559580
     0.639110207  0.133631751  0.000547275
     0.972452703  0.600305653  0.000640289
     0.039124495  0.733640359  0.000654513
     0.572433471  0.600306242  0.000402895
     0.639111888  0.733641879  0.000527905
     0.172454630  0.400318228  0.000289045
     0.239120185  0.533636548  0.000378509
     0.372459750  0.200295993  0.000088997
     0.439107096  0.333673419  0.000055762
     0.172452155  0.600311506  0.000524340
     0.239123371  0.733638574  0.000575129
     0.572431082  0.200289171  0.000413296
     0.639112773  0.333618630  0.000462376
     0.372439808  0.600308022  0.000362844
     0.439116090  0.733637858  0.000494190
     0.572469358  0.400320504  0.000339918
     0.639119408  0.533650873  0.000459610
     0.772445723  0.000315427  0.000596161
     0.839116277  0.133640203  0.000575306
     0.772440513  0.200307432  0.000581033
     0.839120241  0.333635728  0.000585467
     0.772446320  0.400298367  0.000582978
     0.839118980  0.533633964  0.000621100
     0.772456143  0.600308173  0.000595712
     0.839115033  0.733643180  0.000631512
     0.972455313  0.800305582  0.000652233
     0.039114714  0.933643289  0.000598051
     0.172457971  0.800312211  0.000623372
     0.239134551  0.933647193  0.000544850
     0.372451396  0.800316674  0.000551399
     0.439124489  0.933644769  0.000541430
     0.572441101  0.800310054  0.000534535
     0.639115067  0.933638985  0.000587644
     0.772445098  0.800313187  0.000602062
     0.839116614  0.933644338  0.000606830
     0.373021009  0.251226878  0.105946310
     0.420879805  0.189313152  0.108523184
     0.325156981  0.313167186  0.103568115

  ion indices of the primitive-cell ions
   primitive index   ion index
                 1           1
                 2           2
                 3           3
                 4           4
                 5           5
                 6           6
                 7           7
                 8           8
                 9           9
                10          10
                11          11
                12          12
                13          13
                14          14
                15          15
                16          16
                17          17
                18          18
                19          19
                20          20
                21          21
                22          22
                23          23
                24          24
                25          25
                26          26
                27          27
                28          28
                29          29
                30          30
                31          31
                32          32
                33          33
                34          34
                35          35
                36          36
                37          37
                38          38
                39          39
                40          40
                41          41
                42          42
                43          43
                44          44
                45          45
                46          46
                47          47
                48          48
                49          49
                50          50
                51          51
                52          52
                53          53

----------------------------------------------------------------------------------------

 
 
 KPOINTS: auto                                    

Automatic generation of k-mesh.
 Grid dimensions read from file:
 generate k-points for:    1    1    1

 Generating k-lattice:

  Cartesian coordinates                     Fractional coordinates (reciprocal lattice)
     0.081135903  0.046843835  0.000000000     1.000000000 -0.000000000  0.000000000
     0.000000000  0.093687670  0.000000000     0.000000000  1.000000000  0.000000000
     0.000000000  0.000000000  0.040000000     0.000000000  0.000000000  1.000000000

  Length of vectors
     0.093687670  0.093687670  0.040000000

  Shift w.r.t. Gamma in fractional coordinates (k-lattice)
     0.000000000  0.000000000  0.000000000

 
 Subroutine IBZKPT returns following result:
 ===========================================
 
 Found      1 irreducible k-points:
 
 Following reciprocal coordinates:
            Coordinates               Weight
  0.000000  0.000000  0.000000      1.000000
 
 Following cartesian coordinates:
            Coordinates               Weight
  0.000000  0.000000  0.000000      1.000000
 


--------------------------------------------------------------------------------------------------------




 Dimension of arrays:
   k-points           NKPTS =      1   k-points in BZ     NKDIM =      1   number of bands    NBANDS=    168
   number of dos      NEDOS =    301   number of ions     NIONS =     53
   non local maximal  LDIM  =      4   non local SUM 2l+1 LMDIM =      8
   total plane-waves  NPLWV = ******
   max r-space proj   IRMAX =      1   max aug-charges    IRDMAX=  10008
   dimension x,y,z NGX =   128 NGY =  128 NGZ =  270
   dimension x,y,z NGXF=   256 NGYF=  256 NGZF=  540
   support grid    NGXF=   256 NGYF=  256 NGZF=  540
   ions per type =              51   2
   NGX,Y,Z   is equivalent  to a cutoff of  17.27, 17.27, 17.95 a.u.
   NGXF,Y,Z  is equivalent  to a cutoff of  34.53, 34.53, 35.91 a.u.

 SYSTEM =  unknown system                          
 POSCAR =   C  O                                   

 Startparameter for this run:
   NWRITE =      2    write-flag & timer
   PREC   = accura    normal or accurate (medium, high low for compatibility)
   ISTART =      0    job   : 0-new  1-cont  2-samecut
   ICHARG =      2    charge: 1-file 2-atom 10-const
   ISPIN  =      1    spin polarized calculation?
   LNONCOLLINEAR =      F non collinear calculations
   LSORBIT =      F    spin-orbit coupling
   INIWAV =      1    electr: 0-lowe 1-rand  2-diag
   LASPH  =      T    aspherical Exc in radial PAW
 Electronic Relaxation 1
   ENCUT  = 1000.0 eV  73.50 Ry    8.57 a.u.  31.78 31.78 64.46*2*pi/ulx,y,z
   ENINI  = 1000.0     initial cutoff
   ENAUG  =  946.8 eV  augmentation charge cutoff
   NELM   =     60;   NELMIN=  2; NELMDL= -5     # of ELM steps 
   EDIFF  = 0.1E-06   stopping-criterion for ELM
   LREAL  =      F    real-space projection
   NLSPLINE    = F    spline interpolate recip. space projectors
   LCOMPAT=      F    compatible to vasp.4.4
   GGA_COMPAT  = T    GGA compatible to vasp.4.4-vasp.4.6
   LMAXPAW     = -100 max onsite density
   LMAXMIX     =    2 max onsite mixed and CHGCAR
   VOSKOWN=      0    Vosko Wilk Nusair interpolation
   ROPT   =    0.00000   0.00000
 Ionic relaxation
   EDIFFG = 0.1E-05   stopping-criterion for IOM
   NSW    =      0    number of steps for IOM
   NBLOCK =      1;   KBLOCK =      1    inner block; outer block 
   IBRION =     -1    ionic relax: 0-MD 1-quasi-New 2-CG
   NFREE  =      0    steps in history (QN), initial steepest desc. (CG)
   ISIF   =      0    stress and relaxation
   IWAVPR =     10    prediction:  0-non 1-charg 2-wave 3-comb
   ISYM   =      2    0-nonsym 1-usesym 2-fastsym
   LCORR  =      T    Harris-Foulkes like correction to forces

   POTIM  = 0.5000    time-step for ionic-motion
   TEIN   =    0.0    initial temperature
   TEBEG  =    0.0;   TEEND  =   0.0 temperature during run
   SMASS  =  -3.00    Nose mass-parameter (am)
   estimated Nose-frequenzy (Omega)   =  0.10E-29 period in steps = 0.13E+47 mass=  -0.347E-26a.u.
   SCALEE = 1.0000    scale energy and forces
   NPACO  =    256;   APACO  = 16.0  distance and # of slots for P.C.
   PSTRESS=    0.0 pullay stress

  Mass of Ions in am
   POMASS =  12.01 16.00
  Ionic Valenz
   ZVAL   =   4.00  6.00
  Atomic Wigner-Seitz radii
   RWIGS  =  -1.00 -1.00
  virtual crystal weights 
   VCA    =   1.00  1.00
   NELECT =     216.0000    total number of electrons
   NUPDOWN=      -1.0000    fix difference up-down

 DOS related values:
   EMIN   =  10.00;   EMAX   =-10.00  energy-range for DOS
   EFERMI =   0.00
   ISMEAR =     0;   SIGMA  =   0.01  broadening in eV -4-tet -1-fermi 0-gaus

 Electronic relaxation 2 (details)
   IALGO  =     58    algorithm
   LDIAG  =      T    sub-space diagonalisation (order eigenvalues)
   LSUBROT=      F    optimize rotation matrix (better conditioning)
   TURBO    =      0    0=normal 1=particle mesh
   IRESTART =      0    0=no restart 2=restart with 2 vectors
   NREBOOT  =      0    no. of reboots
   NMIN     =      0    reboot dimension
   EREF     =   0.00    reference energy to select bands
   IMIX   =      4    mixing-type and parameters
     AMIX     =   0.40;   BMIX     =  1.00
     AMIX_MAG =   1.60;   BMIX_MAG =  1.00
     AMIN     =   0.10
     WC   =   100.;   INIMIX=   1;  MIXPRE=   1;  MAXMIX= -45

 Intra band minimization:
   WEIMIN = 0.0000     energy-eigenvalue tresh-hold
   EBREAK =  0.15E-09  absolut break condition
   DEPER  =   0.30     relativ break condition  

   TIME   =   0.40     timestep for ELM

  volume/ion in A,a.u.               =      62.05       418.76
  Fermi-wavevector in a.u.,A,eV,Ry     =   0.660508  1.248179  5.935820  0.436270
  Thomas-Fermi vector in A             =   1.732977
 
 Write flags
   LWAVE        =      T    write WAVECAR
   LDOWNSAMPLE  =      F    k-point downsampling of WAVECAR
   LCHARG       =      T    write CHGCAR
   LVTOT        =      F    write LOCPOT, total local potential
   LVHAR        =      F    write LOCPOT, Hartree potential only
   LELF         =      F    write electronic localiz. function (ELF)
   LORBIT       =      0    0 simple, 1 ext, 2 COOP (PROOUT), +10 PAW based schemes


 Dipole corrections
   LMONO  =      F    monopole corrections only (constant potential shift)
   LDIPOL =      F    correct potential (dipole corrections)
   IDIPOL =      0    1-x, 2-y, 3-z, 4-all directions 
   EPSILON=  1.0000000 bulk dielectric constant

 Exchange correlation treatment:
   GGA     =    --    GGA type
   LEXCH   =     8    internal setting for exchange type
   VOSKOWN=      0    Vosko Wilk Nusair interpolation
   LHFCALC =     F    Hartree Fock is set to
   LHFONE  =     F    Hartree Fock one center treatment
   AEXX    =    0.0000 exact exchange contribution

 Linear response parameters
   LEPSILON=     F    determine dielectric tensor
   LRPA    =     F    only Hartree local field effects (RPA)
   LNABLA  =     F    use nabla operator in PAW spheres
   LVEL    =     F    velocity operator in full k-point grid
   LINTERFAST=   F  fast interpolation
   KINTER  =     0    interpolate to denser k-point grid
   CSHIFT  =0.1000    complex shift for real part using Kramers Kronig
   OMEGAMAX=  -1.0    maximum frequency
   DEG_THRESHOLD= 0.2000000E-02 threshold for treating states as degnerate
   RTIME   =   -0.100 relaxation time in fs
  (WPLASMAI=    0.000 imaginary part of plasma frequency in eV, 0.658/RTIME)
   DFIELD  = 0.0000000 0.0000000 0.0000000 field for delta impulse in time
 
 Orbital magnetization related:
   ORBITALMAG=     F  switch on orbital magnetization
   LCHIMAG   =     F  perturbation theory with respect to B field
   DQ        =  0.001000  dq finite difference perturbation B field
   LLRAUG    =     F  two centre corrections for induced B field



--------------------------------------------------------------------------------------------------------


 Static calculation
 charge density and potential will be updated during run
 non-spin polarized calculation
 Conjugate gradient for all bands (Freysoldt, et al. PRB 79, 241103 (2009))
 preconditioned conjugated gradient                                        
 perform sub-space diagonalisation
    before iterative eigenvector-optimisation
 modified Broyden-mixing scheme, WC =      100.0
 initial mixing is a Kerker type mixing with AMIX =  0.4000 and BMIX =      1.0000
 Hartree-type preconditioning will be used
 using additional bands           60
 reciprocal scheme for non local part
 use partial core corrections
 no Harris-corrections to forces 
 use gradient corrections 
 use of overlap-Matrix (Vanderbilt PP)
 Gauss-broadening in eV      SIGMA  =   0.01


--------------------------------------------------------------------------------------------------------


  energy-cutoff  :     1000.00
  volume of cell :     3288.85
      direct lattice vectors                 reciprocal lattice vectors
    12.325000000  0.000000000  0.000000000     0.081135903  0.046843835  0.000000000
    -6.162500000 10.673763102  0.000000000     0.000000000  0.093687670  0.000000000
     0.000000000  0.000000000 25.000000000     0.000000000  0.000000000  0.040000000

  length of vectors
    12.325000000 12.325000000 25.000000000     0.093687670  0.093687670  0.040000000


 
 k-points in units of 2pi/SCALE and weight: auto                                    
   0.00000000  0.00000000  0.00000000       1.000
 
 k-points in reciprocal lattice and weights: auto                                    
   0.00000000  0.00000000  0.00000000       1.000
 
 position of ions in fractional coordinates (direct lattice) 
   0.97245084  0.00032082  0.00056671
   0.03911838  0.13365950  0.00044017
   0.17244363  0.00029545  0.00049963
   0.23909628  0.13364792  0.00025647
   0.97245206  0.20032201  0.00048522
   0.03912836  0.33364377  0.00044415
   0.17245176  0.20035455  0.00021917
   0.23912436  0.33366572  0.00007226
   0.37246557  0.00032440  0.00045391
   0.43913747  0.13361994  0.00025834
   0.97244982  0.40030936  0.00054761
   0.03912498  0.53363679  0.00057341
   0.37241618  0.40032948  0.00000000
   0.43909960  0.53363898  0.00023241
   0.57244368  0.00031213  0.00055958
   0.63911021  0.13363175  0.00054727
   0.97245270  0.60030565  0.00064029
   0.03912449  0.73364036  0.00065451
   0.57243347  0.60030624  0.00040289
   0.63911189  0.73364188  0.00052791
   0.17245463  0.40031823  0.00028904
   0.23912018  0.53363655  0.00037851
   0.37245975  0.20029599  0.00008900
   0.43910710  0.33367342  0.00005576
   0.17245216  0.60031151  0.00052434
   0.23912337  0.73363857  0.00057513
   0.57243108  0.20028917  0.00041330
   0.63911277  0.33361863  0.00046238
   0.37243981  0.60030802  0.00036284
   0.43911609  0.73363786  0.00049419
   0.57246936  0.40032050  0.00033992
   0.63911941  0.53365087  0.00045961
   0.77244572  0.00031543  0.00059616
   0.83911628  0.13364020  0.00057531
   0.77244051  0.20030743  0.00058103
   0.83912024  0.33363573  0.00058547
   0.77244632  0.40029837  0.00058298
   0.83911898  0.53363396  0.00062110
   0.77245614  0.60030817  0.00059571
   0.83911503  0.73364318  0.00063151
   0.97245531  0.80030558  0.00065223
   0.03911471  0.93364329  0.00059805
   0.17245797  0.80031221  0.00062337
   0.23913455  0.93364719  0.00054485
   0.37245140  0.80031667  0.00055140
   0.43912449  0.93364477  0.00054143
   0.57244110  0.80031005  0.00053453
   0.63911507  0.93363899  0.00058764
   0.77244510  0.80031319  0.00060206
   0.83911661  0.93364434  0.00060683
   0.37302101  0.25122688  0.10594631
   0.42087980  0.18931315  0.10852318
   0.32515698  0.31316719  0.10356811
 
 position of ions in cartesian coordinates  (Angst):
  11.98347958  0.00342433  0.01416777
  -0.34154264  1.42664989  0.01100432
   2.12354700  0.00315355  0.01249070
   2.12325634  1.42652621  0.00641170
  10.75098721  2.13818970  0.01213047
  -1.57382270  3.56123457  0.01110375
   0.89078307  2.13853702  0.00547917
   0.89099273  3.56146885  0.00180651
   4.58863896  0.00346260  0.01134782
   4.58893648  1.42622757  0.00645846
   9.51853763  4.27280730  0.01369027
  -2.80632132  5.69591267  0.01433526
   2.12299894  4.27302204  0.00000000
   2.12335237  5.69593607  0.00581036
   7.05344483  0.00333155  0.01398950
   7.05352764  1.42635365  0.01368187
   8.28609598  6.40752033  0.01600723
  -4.03884931  7.83070339  0.01636283
   3.35585531  6.40752662  0.01007237
   3.35598594  7.83071962  0.01319763
  -0.34145776  4.27290193  0.00722612
  -0.34137895  5.69591010  0.00946273
   3.35624236  2.13791198  0.00222492
   3.35573251  3.56155103  0.00139405
  -1.57394684  6.40758280  0.01310850
  -1.57385216  7.83068434  0.01437823
   5.82093107  2.13783916  0.01033241
   5.82114012  3.56096622  0.01155939
   0.89092245  6.40754561  0.00907111
   0.89106251  7.83067670  0.01235474
   4.58870974  4.27292622  0.00849795
   4.58852320  5.69606300  0.01149026
   9.51844972  0.00336679  0.01490402
   9.51855036  1.42644387  0.01438264
   8.28593477  2.13803408  0.01452582
   8.28612680  3.56114872  0.01463668
   7.05356221  4.27268994  0.01457444
   7.05362213  5.69588251  0.01552751
   5.82112285  6.40754723  0.01489279
   5.82101669  7.83073350  0.01578780
   7.05362858  8.54227219  0.01630582
  -5.27148792  9.96548729  0.01495127
  -2.80637951  8.54234295  0.01558431
  -2.80626749  9.96552896  0.01362126
  -0.34148805  8.54239058  0.01378498
  -0.34137657  9.96550309  0.01353576
   2.12342586  8.54231992  0.01336337
   2.12354296  9.96544135  0.01469111
   4.58845581  8.54235337  0.01505154
   4.58852904  9.96549848  0.01517076
   3.04929830  2.68153618  2.64865774
   4.02070129  2.02068374  2.71307960
   2.07766701  3.34267235  2.58920287
 


--------------------------------------------------------------------------------------------------------


 k-point   1 :   0.0000 0.0000 0.0000  plane waves:  236157

 maximum and minimum number of plane-waves per node :    236157   236157

 maximum number of plane-waves:    236157
 maximum index in each direction: 
   IXMAX=   31   IYMAX=   31   IZMAX=   64
   IXMIN=  -31   IYMIN=  -31   IZMIN=  -64


 serial   3D FFT for wavefunctions
 parallel 3D FFT for charge:
    minimum data exchange during FFTs selected (reduces bandwidth)


 total amount of memory used by VASP MPI-rank0   698619. kBytes
=======================================================================

   base      :      30000. kBytes
   nonl-proj :     230539. kBytes
   fftplans  :      40716. kBytes
   grid      :     363125. kBytes
   one-center:        162. kBytes
   wavefun   :      34077. kBytes
 
     INWAV:  cpu time    0.0000: real time    0.0000
 Broyden mixing: mesh for mixing (old mesh)
   NGX = 63   NGY = 63   NGZ =129
  (NGX  =256   NGY  =256   NGZ  =540)
  gives a total of 512001 points

 initial charge density was supplied:
 charge density of overlapping atoms calculated
 number of electron     216.0000000 magnetization 
 keeping initial charge density in first step


--------------------------------------------------------------------------------------------------------


 Maximum index for augmentation-charges          471 (set IRDMAX)


--------------------------------------------------------------------------------------------------------


 First call to EWALD:  gamma=   0.119
 Maximum number of real-space cells 4x 4x 2
 Maximum number of reciprocal cells 2x 2x 4

    FEWALD:  cpu time    0.0040: real time    0.0040


--------------------------------------- Iteration      1(   1)  ---------------------------------------


    POTLOK:  cpu time    1.9690: real time    1.9813
    SETDIJ:  cpu time    0.2270: real time    0.2279
    TRIAL :  cpu time   27.9835: real time   28.2253
    CORREC:  cpu time    0.0003: real time    0.0006
    --------------------------------------------
      LOOP:  cpu time   30.1911: real time   30.4700

 eigenvalue-minimisations  :   336
 total energy-change (2. order) : 0.2561837E+04  (-0.1079861E+05)
 number of electron     216.0000000 magnetization 
 augmentation part      216.0000000 magnetization 

 Free energy of the ion-electron system (eV)
  ---------------------------------------------------
  alpha Z        PSCENC =        47.94900195
  Ewald energy   TEWEN  =     48385.02047969
  -Hartree energ DENC   =    -54452.06656991
  -exchange      EXHF   =         0.00000000
  -V(xc)+E(xc)   XCENC  =       603.42113243
  PAW double counting   =      6339.73130699    -6197.22120962
  entropy T*S    EENTRO =        -0.00000000
  eigenvalues    EBANDS =      -534.52103353
  atomic energy  EATOM  =      8369.52358910
  ---------------------------------------------------
  free energy    TOTEN  =      2561.83669711 eV

  energy without entropy =     2561.83669711  energy(sigma->0) =     2561.83669711


--------------------------------------------------------------------------------------------------------




--------------------------------------- Iteration      1(   2)  ---------------------------------------


    TRIAL :  cpu time   39.7096: real time   40.0191
    CORREC:  cpu time    0.0001: real time    0.0003
    --------------------------------------------
      LOOP:  cpu time   39.7289: real time   40.0400

 eigenvalue-minimisations  :   560
 total energy-change (2. order) :-0.2499980E+04  (-0.2336067E+04)
 number of electron     216.0000000 magnetization 
 augmentation part      216.0000000 magnetization 

 Free energy of the ion-electron system (eV)
  ---------------------------------------------------
  alpha Z        PSCENC =        47.94900195
  Ewald energy   TEWEN  =     48385.02047969
  -Hartree energ DENC   =    -54452.06656991
  -exchange      EXHF   =         0.00000000
  -V(xc)+E(xc)   XCENC  =       603.42113243
  PAW double counting   =      6339.73130699    -6197.22120962
  entropy T*S    EENTRO =        -0.00000000
  eigenvalues    EBANDS =     -3034.50085351
  atomic energy  EATOM  =      8369.52358910
  ---------------------------------------------------
  free energy    TOTEN  =        61.85687712 eV

  energy without entropy =       61.85687712  energy(sigma->0) =       61.85687712


--------------------------------------------------------------------------------------------------------




--------------------------------------- Iteration      1(   3)  ---------------------------------------


    TRIAL :  cpu time   30.8682: real time   31.1132
    CORREC:  cpu time    0.0001: real time    0.0003
    --------------------------------------------
      LOOP:  cpu time   30.9418: real time   31.1911

 eigenvalue-minimisations  :   392
 total energy-change (2. order) :-0.6463230E+03  (-0.6428298E+03)
 number of electron     216.0000000 magnetization 
 augmentation part      216.0000000 magnetization 

 Free energy of the ion-electron system (eV)
  ---------------------------------------------------
  alpha Z        PSCENC =        47.94900195
  Ewald energy   TEWEN  =     48385.02047969
  -Hartree energ DENC   =    -54452.06656991
  -exchange      EXHF   =         0.00000000
  -V(xc)+E(xc)   XCENC  =       603.42113243
  PAW double counting   =      6339.73130699    -6197.22120962
  entropy T*S    EENTRO =        -0.00000000
  eigenvalues    EBANDS =     -3680.82383506
  atomic energy  EATOM  =      8369.52358910
  ---------------------------------------------------
  free energy    TOTEN  =      -584.46610443 eV

  energy without entropy =     -584.46610443  energy(sigma->0) =     -584.46610443


--------------------------------------------------------------------------------------------------------




--------------------------------------- Iteration      1(   4)  ---------------------------------------


    TRIAL :  cpu time   33.8321: real time   34.1121
    CORREC:  cpu time    0.0001: real time    0.0003
    --------------------------------------------
      LOOP:  cpu time   33.8876: real time   34.1720

 eigenvalue-minimisations  :   448
 total energy-change (2. order) :-0.3460839E+02  (-0.3434747E+02)
 number of electron     216.0000000 magnetization 
 augmentation part      216.0000000 magnetization 

 Free energy of the ion-electron system (eV)
  ---------------------------------------------------
  alpha Z        PSCENC =        47.94900195
  Ewald energy   TEWEN  =     48385.02047969
  -Hartree energ DENC   =    -54452.06656991
  -exchange      EXHF   =         0.00000000
  -V(xc)+E(xc)   XCENC  =       603.42113243
  PAW double counting   =      6339.73130699    -6197.22120962
  entropy T*S    EENTRO =        -0.00000000
  eigenvalues    EBANDS =     -3715.43222781
  atomic energy  EATOM  =      8369.52358910
  ---------------------------------------------------
  free energy    TOTEN  =      -619.07449718 eV

  energy without entropy =     -619.07449718  energy(sigma->0) =     -619.07449718


--------------------------------------------------------------------------------------------------------




--------------------------------------- Iteration      1(   5)  ---------------------------------------


    TRIAL :  cpu time   33.7928: real time   34.0691
    CORREC:  cpu time    0.0001: real time    0.0001
    CHARGE:  cpu time    2.9948: real time    3.0226
    --------------------------------------------
      LOOP:  cpu time   36.8327: real time   37.1547

 eigenvalue-minimisations  :   448
 total energy-change (2. order) :-0.1166742E+01  (-0.1162033E+01)
 number of electron     216.0000000 magnetization 
 augmentation part       -0.4356235 magnetization 

 Free energy of the ion-electron system (eV)
  ---------------------------------------------------
  alpha Z        PSCENC =        47.94900195
  Ewald energy   TEWEN  =     48385.02047969
  -Hartree energ DENC   =    -54452.06656991
  -exchange      EXHF   =         0.00000000
  -V(xc)+E(xc)   XCENC  =       603.42113243
  PAW double counting   =      6339.73130699    -6197.22120962
  entropy T*S    EENTRO =        -0.00000000
  eigenvalues    EBANDS =     -3716.59896948
  atomic energy  EATOM  =      8369.52358910
  ---------------------------------------------------
  free energy    TOTEN  =      -620.24123885 eV

  energy without entropy =     -620.24123885  energy(sigma->0) =     -620.24123885


--------------------------------------------------------------------------------------------------------




--------------------------------------- Iteration      1(   6)  ---------------------------------------


    POTLOK:  cpu time    1.9377: real time    1.9509
    SETDIJ:  cpu time    0.2416: real time    0.2425
    TRIAL :  cpu time   19.9687: real time   20.1653
    CORREC:  cpu time    9.2372: real time    9.3074
    CHARGE:  cpu time    2.9853: real time    3.0087
    --------------------------------------------
      LOOP:  cpu time   34.3946: real time   34.7019

 eigenvalue-minimisations  :     0
 total energy-change (2. order) : 0.1036250E+03  (-0.1196888E+02)
 number of electron     216.0000000 magnetization 
 augmentation part       -0.4927565 magnetization 

 Free energy of the ion-electron system (eV)
  ---------------------------------------------------
  alpha Z        PSCENC =        47.94900195
  Ewald energy   TEWEN  =     48385.02047969
  -Hartree energ DENC   =    -55815.55511667
  -exchange      EXHF   =         0.00000000
  -V(xc)+E(xc)   XCENC  =       669.65133961
  PAW double counting   =    114236.77418804  -114099.96912801
  entropy T*S    EENTRO =        -0.00000000
  eigenvalues    EBANDS =     -2310.01061663
  atomic energy  EATOM  =      8369.52358910
  ---------------------------------------------------
  free energy    TOTEN  =      -516.61626292 eV

  energy without entropy =     -516.61626292  energy(sigma->0) =     -516.61626292


--------------------------------------------------------------------------------------------------------




--------------------------------------- Iteration      1(   7)  ---------------------------------------


    POTLOK:  cpu time    1.9246: real time    1.9352
    SETDIJ:  cpu time    0.2388: real time    0.2397
    TRIAL :  cpu time   19.9824: real time   20.1571
    CORREC:  cpu time    9.2090: real time    9.2872
    CHARGE:  cpu time    2.9915: real time    3.0142
    --------------------------------------------
      LOOP:  cpu time   34.3739: real time   34.6628

 eigenvalue-minimisations  :     0
 total energy-change (2. order) :-0.1197644E+02  (-0.1503231E+01)
 number of electron     216.0000000 magnetization 
 augmentation part       -0.5214334 magnetization 

 Free energy of the ion-electron system (eV)
  ---------------------------------------------------
  alpha Z        PSCENC =        47.94900195
  Ewald energy   TEWEN  =     48385.02047969
  -Hartree energ DENC   =    -55380.02890758
  -exchange      EXHF   =         0.00000000
  -V(xc)+E(xc)   XCENC  =       649.93790585
  PAW double counting   =    132688.58817455  -132549.04304114
  entropy T*S    EENTRO =        -0.00000000
  eigenvalues    EBANDS =     -2740.53990455
  atomic energy  EATOM  =      8369.52358910
  ---------------------------------------------------
  free energy    TOTEN  =      -528.59270212 eV

  energy without entropy =     -528.59270212  energy(sigma->0) =     -528.59270212


--------------------------------------------------------------------------------------------------------




--------------------------------------- Iteration      1(   8)  ---------------------------------------


    POTLOK:  cpu time    1.9298: real time    1.9475
    SETDIJ:  cpu time    0.2258: real time    0.2266
    TRIAL :  cpu time   20.0173: real time   20.1806
    CORREC:  cpu time    9.2482: real time    9.3119
    CHARGE:  cpu time    2.9858: real time    3.0076
    --------------------------------------------
      LOOP:  cpu time   34.4135: real time   34.6850

 eigenvalue-minimisations  :     0
 total energy-change (2. order) :-0.1504222E+01  (-0.4907813E+00)
 number of electron     216.0000000 magnetization 
 augmentation part       -0.5188374 magnetization 

 Free energy of the ion-electron system (eV)
  ---------------------------------------------------
  alpha Z        PSCENC =        47.94900195
  Ewald energy   TEWEN  =     48385.02047969
  -Hartree energ DENC   =    -55359.26979920
  -exchange      EXHF   =         0.00000000
  -V(xc)+E(xc)   XCENC  =       648.53080008
  PAW double counting   =    140838.05858726  -140698.05150292
  entropy T*S    EENTRO =        -0.00000000
  eigenvalues    EBANDS =     -2761.85807970
  atomic energy  EATOM  =      8369.52358910
  ---------------------------------------------------
  free energy    TOTEN  =      -530.09692374 eV

  energy without entropy =     -530.09692374  energy(sigma->0) =     -530.09692374


--------------------------------------------------------------------------------------------------------




--------------------------------------- Iteration      1(   9)  ---------------------------------------


    POTLOK:  cpu time    1.9327: real time    1.9433
    SETDIJ:  cpu time    0.2366: real time    0.2374
    TRIAL :  cpu time   19.9873: real time   20.1515
    CORREC:  cpu time    9.2278: real time    9.2988
    CHARGE:  cpu time    2.9857: real time    3.0072
    --------------------------------------------
      LOOP:  cpu time   34.4552: real time   34.7255

 eigenvalue-minimisations  :     0
 total energy-change (2. order) :-0.4902737E+00  (-0.1903328E+00)
 number of electron     216.0000000 magnetization 
 augmentation part       -0.5128744 magnetization 

 Free energy of the ion-electron system (eV)
  ---------------------------------------------------
  alpha Z        PSCENC =        47.94900195
  Ewald energy   TEWEN  =     48385.02047969
  -Hartree energ DENC   =    -55365.82230912
  -exchange      EXHF   =         0.00000000
  -V(xc)+E(xc)   XCENC  =       648.27876369
  PAW double counting   =    146822.68731854  -146682.48732827
  entropy T*S    EENTRO =        -0.00000000
  eigenvalues    EBANDS =     -2755.73671306
  atomic energy  EATOM  =      8369.52358910
  ---------------------------------------------------
  free energy    TOTEN  =      -530.58719747 eV

  energy without entropy =     -530.58719747  energy(sigma->0) =     -530.58719747


--------------------------------------------------------------------------------------------------------




--------------------------------------- Iteration      1(  10)  ---------------------------------------


    POTLOK:  cpu time    1.9368: real time    1.9475
    SETDIJ:  cpu time    0.2353: real time    0.2361
    TRIAL :  cpu time   20.0125: real time   20.1625
    CORREC:  cpu time    9.2535: real time    9.3160
    CHARGE:  cpu time    2.9848: real time    3.0058
    --------------------------------------------
      LOOP:  cpu time   34.4824: real time   34.7322

 eigenvalue-minimisations  :     0
 total energy-change (2. order) :-0.1901189E+00  (-0.7990946E-01)
 number of electron     216.0000000 magnetization 
 augmentation part       -0.5070882 magnetization 

 Free energy of the ion-electron system (eV)
  ---------------------------------------------------
  alpha Z        PSCENC =        47.94900195
  Ewald energy   TEWEN  =     48385.02047969
  -Hartree energ DENC   =    -55363.84690471
  -exchange      EXHF   =         0.00000000
  -V(xc)+E(xc)   XCENC  =       648.07494417
  PAW double counting   =    149051.32036414  -148911.03139467
  entropy T*S    EENTRO =        -0.00000000
  eigenvalues    EBANDS =     -2757.78739600
  atomic energy  EATOM  =      8369.52358910
  ---------------------------------------------------
  free energy    TOTEN  =      -530.77731633 eV

  energy without entropy =     -530.77731633  energy(sigma->0) =     -530.77731633


--------------------------------------------------------------------------------------------------------




--------------------------------------- Iteration      1(  11)  ---------------------------------------


    POTLOK:  cpu time    1.9388: real time    1.9491
    SETDIJ:  cpu time    0.2401: real time    0.2409
    TRIAL :  cpu time   19.9842: real time   20.1643
    CORREC:  cpu time    9.2383: real time    9.3013
    CHARGE:  cpu time    3.0010: real time    3.0231
    --------------------------------------------
      LOOP:  cpu time   34.4477: real time   34.7275

 eigenvalue-minimisations  :     0
 total energy-change (2. order) :-0.7977852E-01  (-0.3155232E-01)
 number of electron     216.0000000 magnetization 
 augmentation part       -0.5038509 magnetization 

 Free energy of the ion-electron system (eV)
  ---------------------------------------------------
  alpha Z        PSCENC =        47.94900195
  Ewald energy   TEWEN  =     48385.02047969
  -Hartree energ DENC   =    -55358.11734000
  -exchange      EXHF   =         0.00000000
  -V(xc)+E(xc)   XCENC  =       647.94739938
  PAW double counting   =    148899.45445137  -148759.16564412
  entropy T*S    EENTRO =        -0.00000000
  eigenvalues    EBANDS =     -2763.46903221
  atomic energy  EATOM  =      8369.52358910
  ---------------------------------------------------
  free energy    TOTEN  =      -530.85709485 eV

  energy without entropy =     -530.85709485  energy(sigma->0) =     -530.85709485


--------------------------------------------------------------------------------------------------------




--------------------------------------- Iteration      1(  12)  ---------------------------------------


    POTLOK:  cpu time    1.9375: real time    1.9488
    SETDIJ:  cpu time    0.2344: real time    0.2352
    TRIAL :  cpu time   19.9690: real time   20.1391
    CORREC:  cpu time    9.2282: real time    9.2929
    CHARGE:  cpu time    2.9881: real time    3.0096
    --------------------------------------------
      LOOP:  cpu time   34.3724: real time   34.6642

 eigenvalue-minimisations  :     0
 total energy-change (2. order) :-0.3151895E-01  (-0.1018283E-01)
 number of electron     216.0000000 magnetization 
 augmentation part       -0.5038901 magnetization 

 Free energy of the ion-electron system (eV)
  ---------------------------------------------------
  alpha Z        PSCENC =        47.94900195
  Ewald energy   TEWEN  =     48385.02047969
  -Hartree energ DENC   =    -55353.64448871
  -exchange      EXHF   =         0.00000000
  -V(xc)+E(xc)   XCENC  =       647.85376799
  PAW double counting   =    148172.39956668  -148032.13561114
  entropy T*S    EENTRO =        -0.00000000
  eigenvalues    EBANDS =     -2767.85491937
  atomic energy  EATOM  =      8369.52358910
  ---------------------------------------------------
  free energy    TOTEN  =      -530.88861380 eV

  energy without entropy =     -530.88861380  energy(sigma->0) =     -530.88861380


--------------------------------------------------------------------------------------------------------




--------------------------------------- Iteration      1(  13)  ---------------------------------------


    POTLOK:  cpu time    1.9369: real time    1.9474
    SETDIJ:  cpu time    0.2410: real time    0.2418
    TRIAL :  cpu time   20.0248: real time   20.1795
    CORREC:  cpu time    9.2608: real time    9.3319
    CHARGE:  cpu time    2.9882: real time    3.0107
    --------------------------------------------
      LOOP:  cpu time   34.4905: real time   34.7543

 eigenvalue-minimisations  :     0
 total energy-change (2. order) :-0.1018907E-01  (-0.2790469E-02)
 number of electron     216.0000000 magnetization 
 augmentation part       -0.5045207 magnetization 

 Free energy of the ion-electron system (eV)
  ---------------------------------------------------
  alpha Z        PSCENC =        47.94900195
  Ewald energy   TEWEN  =     48385.02047969
  -Hartree energ DENC   =    -55352.01872399
  -exchange      EXHF   =         0.00000000
  -V(xc)+E(xc)   XCENC  =       647.80127894
  PAW double counting   =    147639.64721664  -147499.39550975
  entropy T*S    EENTRO =        -0.00000000
  eigenvalues    EBANDS =     -2769.42613547
  atomic energy  EATOM  =      8369.52358910
  ---------------------------------------------------
  free energy    TOTEN  =      -530.89880287 eV

  energy without entropy =     -530.89880287  energy(sigma->0) =     -530.89880287


--------------------------------------------------------------------------------------------------------




--------------------------------------- Iteration      1(  14)  ---------------------------------------


    POTLOK:  cpu time    1.9362: real time    1.9469
    SETDIJ:  cpu time    0.2497: real time    0.2506
    TRIAL :  cpu time   20.0062: real time   20.1668
    CORREC:  cpu time    9.2268: real time    9.2945
    CHARGE:  cpu time    2.9827: real time    3.0043
    --------------------------------------------
      LOOP:  cpu time   34.4641: real time   34.7261

 eigenvalue-minimisations  :     0
 total energy-change (2. order) :-0.2794163E-02  (-0.7266464E-03)
 number of electron     216.0000000 magnetization 
 augmentation part       -0.5047888 magnetization 

 Free energy of the ion-electron system (eV)
  ---------------------------------------------------
  alpha Z        PSCENC =        47.94900195
  Ewald energy   TEWEN  =     48385.02047969
  -Hartree energ DENC   =    -55351.96619775
  -exchange      EXHF   =         0.00000000
  -V(xc)+E(xc)   XCENC  =       647.79632112
  PAW double counting   =    147407.10837254  -147266.86209221
  entropy T*S    EENTRO =        -0.00000000
  eigenvalues    EBANDS =     -2769.47107149
  atomic energy  EATOM  =      8369.52358910
  ---------------------------------------------------
  free energy    TOTEN  =      -530.90159703 eV

  energy without entropy =     -530.90159703  energy(sigma->0) =     -530.90159703


--------------------------------------------------------------------------------------------------------




--------------------------------------- Iteration      1(  15)  ---------------------------------------


    POTLOK:  cpu time    1.9368: real time    1.9473
    SETDIJ:  cpu time    0.2384: real time    0.2393
    TRIAL :  cpu time   20.0091: real time   20.1850
    CORREC:  cpu time    9.2524: real time    9.3238
    CHARGE:  cpu time    2.9820: real time    3.0035
    --------------------------------------------
      LOOP:  cpu time   34.4815: real time   34.7683

 eigenvalue-minimisations  :     0
 total energy-change (2. order) :-0.7267577E-03  (-0.1920498E-03)
 number of electron     216.0000000 magnetization 
 augmentation part       -0.5048993 magnetization 

 Free energy of the ion-electron system (eV)
  ---------------------------------------------------
  alpha Z        PSCENC =        47.94900195
  Ewald energy   TEWEN  =     48385.02047969
  -Hartree energ DENC   =    -55351.88626056
  -exchange      EXHF   =         0.00000000
  -V(xc)+E(xc)   XCENC  =       647.79768227
  PAW double counting   =    147315.19265592  -147174.94885590
  entropy T*S    EENTRO =        -0.00000000
  eigenvalues    EBANDS =     -2769.55061626
  atomic energy  EATOM  =      8369.52358910
  ---------------------------------------------------
  free energy    TOTEN  =      -530.90232379 eV

  energy without entropy =     -530.90232379  energy(sigma->0) =     -530.90232379


--------------------------------------------------------------------------------------------------------




--------------------------------------- Iteration      1(  16)  ---------------------------------------


    POTLOK:  cpu time    1.9366: real time    1.9475
    SETDIJ:  cpu time    0.2331: real time    0.2357
    TRIAL :  cpu time   20.0021: real time   20.1628
    CORREC:  cpu time    9.2401: real time    9.3034
    CHARGE:  cpu time    2.9834: real time    3.0050
    --------------------------------------------
      LOOP:  cpu time   34.4906: real time   34.7786

 eigenvalue-minimisations  :     0
 total energy-change (2. order) :-0.1926867E-03  (-0.5884263E-04)
 number of electron     216.0000000 magnetization 
 augmentation part       -0.5049206 magnetization 

 Free energy of the ion-electron system (eV)
  ---------------------------------------------------
  alpha Z        PSCENC =        47.94900195
  Ewald energy   TEWEN  =     48385.02047969
  -Hartree energ DENC   =    -55351.79023022
  -exchange      EXHF   =         0.00000000
  -V(xc)+E(xc)   XCENC  =       647.79657747
  PAW double counting   =    147262.02517789  -147121.78187229
  entropy T*S    EENTRO =        -0.00000000
  eigenvalues    EBANDS =     -2769.64524006
  atomic energy  EATOM  =      8369.52358910
  ---------------------------------------------------
  free energy    TOTEN  =      -530.90251648 eV

  energy without entropy =     -530.90251648  energy(sigma->0) =     -530.90251648


--------------------------------------------------------------------------------------------------------




--------------------------------------- Iteration      1(  17)  ---------------------------------------


    POTLOK:  cpu time    1.9388: real time    1.9495
    SETDIJ:  cpu time    0.2349: real time    0.2358
    TRIAL :  cpu time   19.9518: real time   20.1493
    CORREC:  cpu time    9.2403: real time    9.3037
    CHARGE:  cpu time    2.9850: real time    3.0063
    --------------------------------------------
      LOOP:  cpu time   34.4356: real time   34.7335

 eigenvalue-minimisations  :     0
 total energy-change (2. order) :-0.5873686E-04  (-0.2246335E-04)
 number of electron     216.0000000 magnetization 
 augmentation part       -0.5049277 magnetization 

 Free energy of the ion-electron system (eV)
  ---------------------------------------------------
  alpha Z        PSCENC =        47.94900195
  Ewald energy   TEWEN  =     48385.02047969
  -Hartree energ DENC   =    -55351.92437687
  -exchange      EXHF   =         0.00000000
  -V(xc)+E(xc)   XCENC  =       647.80291946
  PAW double counting   =    147224.20637450  -147083.96368584
  entropy T*S    EENTRO =        -0.00000000
  eigenvalues    EBANDS =     -2769.51687720
  atomic energy  EATOM  =      8369.52358910
  ---------------------------------------------------
  free energy    TOTEN  =      -530.90257521 eV

  energy without entropy =     -530.90257521  energy(sigma->0) =     -530.90257521


--------------------------------------------------------------------------------------------------------




--------------------------------------- Iteration      1(  18)  ---------------------------------------


    POTLOK:  cpu time    1.9442: real time    1.9556
    SETDIJ:  cpu time    0.2266: real time    0.2273
    TRIAL :  cpu time   19.9644: real time   20.1325
    CORREC:  cpu time    9.2274: real time    9.2939
    CHARGE:  cpu time    3.0029: real time    3.0276
    --------------------------------------------
      LOOP:  cpu time   34.4289: real time   34.7074

 eigenvalue-minimisations  :     0
 total energy-change (2. order) :-0.2201699E-04  (-0.9206906E-05)
 number of electron     216.0000000 magnetization 
 augmentation part       -0.5049548 magnetization 

 Free energy of the ion-electron system (eV)
  ---------------------------------------------------
  alpha Z        PSCENC =        47.94900195
  Ewald energy   TEWEN  =     48385.02047969
  -Hartree energ DENC   =    -55352.01370822
  -exchange      EXHF   =         0.00000000
  -V(xc)+E(xc)   XCENC  =       647.80635851
  PAW double counting   =    147207.39375900  -147067.15104417
  entropy T*S    EENTRO =        -0.00000000
  eigenvalues    EBANDS =     -2769.43103310
  atomic energy  EATOM  =      8369.52358910
  ---------------------------------------------------
  free energy    TOTEN  =      -530.90259723 eV

  energy without entropy =     -530.90259723  energy(sigma->0) =     -530.90259723


--------------------------------------------------------------------------------------------------------




--------------------------------------- Iteration      1(  19)  ---------------------------------------


    POTLOK:  cpu time    1.9365: real time    1.9469
    SETDIJ:  cpu time    0.2368: real time    0.2376
    TRIAL :  cpu time   19.9848: real time   20.1674
    CORREC:  cpu time    9.2457: real time    9.3119
    CHARGE:  cpu time    2.9830: real time    3.0065
    --------------------------------------------
      LOOP:  cpu time   34.4203: real time   34.7054

 eigenvalue-minimisations  :     0
 total energy-change (2. order) :-0.8938950E-05  (-0.4090288E-05)
 number of electron     216.0000000 magnetization 
 augmentation part       -0.5049707 magnetization 

 Free energy of the ion-electron system (eV)
  ---------------------------------------------------
  alpha Z        PSCENC =        47.94900195
  Ewald energy   TEWEN  =     48385.02047969
  -Hartree energ DENC   =    -55352.01959431
  -exchange      EXHF   =         0.00000000
  -V(xc)+E(xc)   XCENC  =       647.80604692
  PAW double counting   =    147209.23332548  -147068.99009988
  entropy T*S    EENTRO =        -0.00000000
  eigenvalues    EBANDS =     -2769.42535513
  atomic energy  EATOM  =      8369.52358910
  ---------------------------------------------------
  free energy    TOTEN  =      -530.90260617 eV

  energy without entropy =     -530.90260617  energy(sigma->0) =     -530.90260617


--------------------------------------------------------------------------------------------------------




--------------------------------------- Iteration      1(  20)  ---------------------------------------


    POTLOK:  cpu time    1.9320: real time    1.9501
    SETDIJ:  cpu time    0.2361: real time    0.2369
    TRIAL :  cpu time   20.0158: real time   20.1677
    CORREC:  cpu time    9.2427: real time    9.3199
    CHARGE:  cpu time    3.0186: real time    3.0397
    --------------------------------------------
      LOOP:  cpu time   34.4868: real time   34.7616

 eigenvalue-minimisations  :     0
 total energy-change (2. order) :-0.3464695E-05  (-0.9895115E-06)
 number of electron     216.0000000 magnetization 
 augmentation part       -0.5049765 magnetization 

 Free energy of the ion-electron system (eV)
  ---------------------------------------------------
  alpha Z        PSCENC =        47.94900195
  Ewald energy   TEWEN  =     48385.02047969
  -Hartree energ DENC   =    -55352.05362275
  -exchange      EXHF   =         0.00000000
  -V(xc)+E(xc)   XCENC  =       647.80699658
  PAW double counting   =    147218.25779039  -147078.01439402
  entropy T*S    EENTRO =        -0.00000000
  eigenvalues    EBANDS =     -2769.39245057
  atomic energy  EATOM  =      8369.52358910
  ---------------------------------------------------
  free energy    TOTEN  =      -530.90260963 eV

  energy without entropy =     -530.90260963  energy(sigma->0) =     -530.90260963


--------------------------------------------------------------------------------------------------------




--------------------------------------- Iteration      1(  21)  ---------------------------------------


    POTLOK:  cpu time    1.9385: real time    1.9489
    SETDIJ:  cpu time    0.2359: real time    0.2367
    TRIAL :  cpu time   19.9840: real time   20.1545
    CORREC:  cpu time    9.2488: real time    9.3163
    CHARGE:  cpu time    2.9867: real time    3.0083
    --------------------------------------------
      LOOP:  cpu time   34.4470: real time   34.7266

 eigenvalue-minimisations  :     0
 total energy-change (2. order) :-0.9784708E-06  (-0.3978670E-06)
 number of electron     216.0000000 magnetization 
 augmentation part       -0.5049726 magnetization 

 Free energy of the ion-electron system (eV)
  ---------------------------------------------------
  alpha Z        PSCENC =        47.94900195
  Ewald energy   TEWEN  =     48385.02047969
  -Hartree energ DENC   =    -55352.05174956
  -exchange      EXHF   =         0.00000000
  -V(xc)+E(xc)   XCENC  =       647.80664309
  PAW double counting   =    147222.10697464  -147081.86351256
  entropy T*S    EENTRO =        -0.00000000
  eigenvalues    EBANDS =     -2769.39403696
  atomic energy  EATOM  =      8369.52358910
  ---------------------------------------------------
  free energy    TOTEN  =      -530.90261061 eV

  energy without entropy =     -530.90261061  energy(sigma->0) =     -530.90261061


--------------------------------------------------------------------------------------------------------




--------------------------------------- Iteration      1(  22)  ---------------------------------------


    POTLOK:  cpu time    1.9362: real time    1.9468
    SETDIJ:  cpu time    0.2353: real time    0.2361
    TRIAL :  cpu time   19.9672: real time   20.1386
    CORREC:  cpu time    9.2502: real time    9.3206
    CHARGE:  cpu time    2.9785: real time    3.0002
    --------------------------------------------
      LOOP:  cpu time   34.4143: real time   34.7257

 eigenvalue-minimisations  :     0
 total energy-change (2. order) :-0.3706664E-06  (-0.1665769E-06)
 number of electron     216.0000000 magnetization 
 augmentation part       -0.5049672 magnetization 

 Free energy of the ion-electron system (eV)
  ---------------------------------------------------
  alpha Z        PSCENC =        47.94900195
  Ewald energy   TEWEN  =     48385.02047969
  -Hartree energ DENC   =    -55352.04739779
  -exchange      EXHF   =         0.00000000
  -V(xc)+E(xc)   XCENC  =       647.80642772
  PAW double counting   =    147222.77981366  -147082.53639366
  entropy T*S    EENTRO =        -0.00000000
  eigenvalues    EBANDS =     -2769.39813166
  atomic energy  EATOM  =      8369.52358910
  ---------------------------------------------------
  free energy    TOTEN  =      -530.90261098 eV

  energy without entropy =     -530.90261098  energy(sigma->0) =     -530.90261098


--------------------------------------------------------------------------------------------------------




--------------------------------------- Iteration      1(  23)  ---------------------------------------


    POTLOK:  cpu time    1.9403: real time    1.9509
    SETDIJ:  cpu time    0.2292: real time    0.2300
    TRIAL :  cpu time   19.9632: real time   20.1639
    CORREC:  cpu time    9.2249: real time    9.2917
    CHARGE:  cpu time    2.9879: real time    3.0104
    --------------------------------------------
      LOOP:  cpu time   34.4305: real time   34.7373

 eigenvalue-minimisations  :     0
 total energy-change (2. order) :-0.1383305E-06  (-0.6043566E-07)
 number of electron     216.0000000 magnetization 
 augmentation part       -0.5049650 magnetization 

 Free energy of the ion-electron system (eV)
  ---------------------------------------------------
  alpha Z        PSCENC =        47.94900195
  Ewald energy   TEWEN  =     48385.02047969
  -Hartree energ DENC   =    -55352.04458373
  -exchange      EXHF   =         0.00000000
  -V(xc)+E(xc)   XCENC  =       647.80636463
  PAW double counting   =    147222.69900630  -147082.45565119
  entropy T*S    EENTRO =        -0.00000000
  eigenvalues    EBANDS =     -2769.40081788
  atomic energy  EATOM  =      8369.52358910
  ---------------------------------------------------
  free energy    TOTEN  =      -530.90261112 eV

  energy without entropy =     -530.90261112  energy(sigma->0) =     -530.90261112


--------------------------------------------------------------------------------------------------------




--------------------------------------- Iteration      1(  24)  ---------------------------------------


    POTLOK:  cpu time    1.9378: real time    1.9481
    SETDIJ:  cpu time    0.2435: real time    0.2444
    TRIAL :  cpu time   19.9664: real time   20.1498
    CORREC:  cpu time    9.2533: real time    9.3156
    EDDIAG:  cpu time    4.1550: real time    4.1935
    CHARGE:  cpu time    2.9737: real time    3.0033
    --------------------------------------------
      LOOP:  cpu time   38.6210: real time   38.9527

 eigenvalue-minimisations  :     0
 total energy-change (2. order) :-0.2727029E-07  (-0.3626402E-07)
 number of electron     216.0000000 magnetization 
 augmentation part       -0.5049655 magnetization 

 Free energy of the ion-electron system (eV)
  ---------------------------------------------------
  alpha Z        PSCENC =        47.94900195
  Ewald energy   TEWEN  =     48385.02047969
  -Hartree energ DENC   =    -55352.04200862
  -exchange      EXHF   =         0.00000000
  -V(xc)+E(xc)   XCENC  =       647.80630084
  PAW double counting   =    147222.64189853  -147082.39857271
  entropy T*S    EENTRO =        -0.00000000
  eigenvalues    EBANDS =     -2769.40329994
  atomic energy  EATOM  =      8369.52358910
  ---------------------------------------------------
  free energy    TOTEN  =      -530.90261115 eV

  energy without entropy =     -530.90261115  energy(sigma->0) =     -530.90261115


--------------------------------------------------------------------------------------------------------


  average scaling for gradient   0.8523


 average (electrostatic) potential at core
  the test charge radii are     0.5770  0.5955
  (the norm of the test charge is              1.0000)
       1 -88.0863       2 -88.0762       3 -88.0943       4 -88.0977       5 -88.0716
       6 -88.0648       7 -88.0787       8 -88.0450       9 -88.0659      10 -88.0617
      11 -88.0690      12 -88.0786      13 -88.0604      14 -88.0577      15 -88.0674
      16 -88.0666      17 -88.0742      18 -88.0771      19 -88.0812      20 -88.0740
      21 -88.0561      22 -88.0586      23 -88.0903      24 -88.0793      25 -88.0701
      26 -88.0718      27 -88.0624      28 -88.0867      29 -88.0658      30 -88.0666
      31 -88.0967      32 -88.0812      33 -88.0836      34 -88.0736      35 -88.0657
      36 -88.0740      37 -88.0718      38 -88.0798      39 -88.0791      40 -88.0769
      41 -88.0798      42 -88.0844      43 -88.0748      44 -88.0842      45 -88.0684
      46 -88.0655      47 -88.0792      48 -88.0729      49 -88.0797      50 -88.0780
      51 -92.0813      52-124.1782      53-124.1944
 
 
 
 E-fermi :  -4.3480     XC(G=0):  -1.8408     alpha+bet : -1.6890

 Fermi energy:        -4.3480047258

 k-point     1 :       0.0000    0.0000    0.0000
  band No.  band energies     occupation 
      1     -29.1592      2.00000
      2     -28.1270      2.00000
      3     -23.5849      2.00000
      4     -22.6174      2.00000
      5     -22.6040      2.00000
      6     -22.5962      2.00000
      7     -22.5948      2.00000
      8     -22.5917      2.00000
      9     -22.5858      2.00000
     10     -20.6803      2.00000
     11     -20.6734      2.00000
     12     -20.6640      2.00000
     13     -20.6624      2.00000
     14     -20.6603      2.00000
     15     -20.6598      2.00000
     16     -19.7412      2.00000
     17     -19.7353      2.00000
     18     -19.7305      2.00000
     19     -19.7283      2.00000
     20     -19.7264      2.00000
     21     -19.7255      2.00000
     22     -17.5203      2.00000
     23     -17.5167      2.00000
     24     -17.5107      2.00000
     25     -17.5088      2.00000
     26     -17.5039      2.00000
     27     -17.5027      2.00000
     28     -16.3594      2.00000
     29     -16.3563      2.00000
     30     -16.3498      2.00000
     31     -16.3495      2.00000
     32     -16.3466      2.00000
     33     -16.3457      2.00000
     34     -14.9642      2.00000
     35     -14.9615      2.00000
     36     -14.9599      2.00000
     37     -14.9566      2.00000
     38     -14.9559      2.00000
     39     -14.9554      2.00000
     40     -13.1631      2.00000
     41     -12.5066      2.00000
     42     -12.5049      2.00000
     43     -12.4982      2.00000
     44     -12.4971      2.00000
     45     -12.4968      2.00000
     46     -12.4939      2.00000
     47     -12.2902      2.00000
     48     -12.2850      2.00000
     49     -12.2827      2.00000
     50     -12.2815      2.00000
     51     -12.2756      2.00000
     52     -12.2751      2.00000
     53     -11.8999      2.00000
     54     -11.8735      2.00000
     55     -11.6225      2.00000
     56     -10.8580      2.00000
     57     -10.8360      2.00000
     58     -10.8347      2.00000
     59     -10.8337      2.00000
     60     -10.8325      2.00000
     61     -10.8317      2.00000
     62     -10.8303      2.00000
     63      -9.7729      2.00000
     64      -9.7675      2.00000
     65      -9.7661      2.00000
     66      -9.7643      2.00000
     67      -9.7620      2.00000
     68      -9.5821      2.00000
     69      -9.5434      2.00000
     70      -9.5393      2.00000
     71      -9.5361      2.00000
     72      -9.5350      2.00000
     73      -9.5336      2.00000
     74      -9.5316      2.00000
     75      -9.5314      2.00000
     76      -9.5298      2.00000
     77      -9.5286      2.00000
     78      -9.5281      2.00000
     79      -9.5263      2.00000
     80      -9.5256      2.00000
     81      -8.1957      2.00000
     82      -8.0477      2.00000
     83      -7.8305      2.00000
     84      -7.8295      2.00000
     85      -7.8284      2.00000
     86      -7.8230      2.00000
     87      -7.8215      2.00000
     88      -7.8208      2.00000
     89      -7.5375      2.00000
     90      -7.5243      2.00000
     91      -7.5206      2.00000
     92      -7.5002      2.00000
     93      -7.4908      2.00000
     94      -7.3419      2.00000
     95      -6.5936      2.00000
     96      -6.5897      2.00000
     97      -6.5794      2.00000
     98      -6.5726      2.00000
     99      -6.5595      2.00000
    100      -6.4750      2.00000
    101      -6.3108      2.00000
    102      -6.3082      2.00000
    103      -4.5056      2.00000
    104      -4.4967      2.00000
    105      -4.4855      2.00000
    106      -4.4815      2.00000
    107      -4.4799      2.00000
    108      -4.4729      2.00000
    109      -1.5487      0.00000
    110      -1.5387      0.00000
    111      -1.5140      0.00000
    112      -1.5089      0.00000
    113      -1.5066      0.00000
    114      -1.4949      0.00000
    115       0.4043      0.00000
    116       0.4329      0.00000
    117       0.4540      0.00000
    118       0.4665      0.00000
    119       0.4727      0.00000
    120       0.4815      0.00000
    121       0.6110      0.00000
    122       1.2658      0.00000
    123       1.2780      0.00000
    124       1.3552      0.00000
    125       1.5040      0.00000
    126       1.7147      0.00000
    127       1.9604      0.00000
    128       1.9881      0.00000
    129       1.9900      0.00000
    130       1.9980      0.00000
    131       2.0969      0.00000
    132       2.1105      0.00000
    133       2.3173      0.00000
    134       2.3313      0.00000
    135       2.3432      0.00000
    136       2.3487      0.00000
    137       2.3502      0.00000
    138       2.3648      0.00000
    139       2.4106      0.00000
    140       2.5589      0.00000
    141       2.6572      0.00000
    142       2.7180      0.00000
    143       2.7250      0.00000
    144       2.7269      0.00000
    145       2.7543      0.00000
    146       2.8169      0.00000
    147       2.8375      0.00000
    148       2.8932      0.00000
    149       2.9563      0.00000
    150       2.9707      0.00000
    151       3.1472      0.00000
    152       3.5276      0.00000
    153       3.5761      0.00000
    154       3.6809      0.00000
    155       3.8090      0.00000
    156       3.8408      0.00000
    157       4.2580      0.00000
    158       4.3839      0.00000
    159       4.5596      0.00000
    160       4.7572      0.00000
    161       4.8732      0.00000
    162       4.8955      0.00000
    163       4.9262      0.00000
    164       4.9276      0.00000
    165       4.9427      0.00000
    166       4.9462      0.00000
    167       4.9483      0.00000
    168       4.9506      0.00000


--------------------------------------------------------------------------------------------------------


 soft charge-density along one line, spin component           1
         0         1         2         3         4         5         6         7         8         9
 total charge-density along one line
 
 pseudopotential strength for first ion, spin component:           1
 12.643  21.274  -0.000   0.000   0.000  -0.000   0.000   0.000
 21.274  35.794  -0.000   0.000   0.000  -0.000   0.000   0.000
 -0.000  -0.000  -3.239   0.000   0.000  -5.804   0.000   0.000
  0.000   0.000   0.000  -3.243   0.000   0.000  -5.810   0.000
  0.000   0.000   0.000   0.000  -3.239   0.000   0.000  -5.804
 -0.000  -0.000  -5.804   0.000   0.000 -10.376   0.000   0.000
  0.000   0.000   0.000  -5.810   0.000   0.000 -10.386   0.000
  0.000   0.000   0.000   0.000  -5.804   0.000   0.000 -10.376
 total augmentation occupancy for first ion, spin component:           1
  9.641  -3.598   0.000  -0.002  -0.000  -0.000   0.001   0.000
 -3.598   1.373  -0.000   0.001   0.000   0.000  -0.000  -0.000
  0.000  -0.000   8.196  -0.009   0.001  -2.895   0.003  -0.000
 -0.002   0.001  -0.009   3.781  -0.000   0.003  -1.106   0.000
 -0.000   0.000   0.001  -0.000   8.195  -0.000   0.000  -2.895
 -0.000   0.000  -2.895   0.003  -0.000   1.035  -0.001   0.000
  0.001  -0.000   0.003  -1.106   0.000  -0.001   0.329   0.000
  0.000  -0.000  -0.000   0.000  -2.895   0.000   0.000   1.035


------------------------ aborting loop because EDIFF is reached ----------------------------------------


    FORLOC:  cpu time    0.1409: real time    0.1418
    FORNL :  cpu time    3.8085: real time    3.8400
    FORCOR:  cpu time    1.9080: real time    1.9221
    OFIELD:  cpu time    0.0031: real time    0.0031

 VOLUME and BASIS-vectors are now :
 -----------------------------------------------------------------------------
  energy-cutoff  :     1000.00
  volume of cell :     3288.85
      direct lattice vectors                 reciprocal lattice vectors
    12.325000000  0.000000000  0.000000000     0.081135903  0.046843835  0.000000000
    -6.162500000 10.673763102  0.000000000     0.000000000  0.093687670  0.000000000
     0.000000000  0.000000000 25.000000000     0.000000000  0.000000000  0.040000000

  length of vectors
    12.325000000 12.325000000 25.000000000     0.093687670  0.093687670  0.040000000


 FORCES acting on ions:
    Electron-Ion                     Ewald-Force                    Non-Local-Force
 -----------------------------------------------------------------------------------------------
   0.139E+02 0.122E+02 0.243E+02   -.139E+02 -.122E+02 -.243E+02   0.513E-02 -.390E-02 0.186E-01
   0.239E+02 0.120E+02 0.335E+02   -.239E+02 -.120E+02 -.335E+02   0.211E-01 -.133E-02 -.527E-02
   0.125E+02 0.313E+02 0.435E+02   -.125E+02 -.314E+02 -.435E+02   0.111E-01 0.715E-01 0.626E-01
   0.218E+02 0.322E+02 0.783E+02   -.220E+02 -.323E+02 -.785E+02   0.120E+00 0.652E-01 0.114E+00
   0.153E+02 0.362E+01 0.244E+02   -.153E+02 -.361E+01 -.244E+02   -.118E-01 -.879E-02 -.504E-02
   0.161E+02 -.265E+01 0.251E+02   -.161E+02 0.266E+01 -.251E+02   -.397E-01 0.214E-02 -.140E-01
   0.358E+02 0.155E+02 0.649E+02   -.359E+02 -.154E+02 -.649E+02   0.623E-01 -.937E-01 -.748E-01
   0.363E+02 -.118E+02 0.712E+02   -.362E+02 0.119E+02 -.711E+02   -.436E-01 -.166E-01 -.318E+00
   -.136E+02 0.297E+02 0.458E+02   0.136E+02 -.297E+02 -.458E+02   -.935E-02 -.133E-02 -.699E-01
   -.273E+02 0.236E+02 0.780E+02   0.274E+02 -.237E+02 -.779E+02   -.520E-01 0.317E-01 -.355E+00
   0.366E+01 -.315E+01 0.190E+02   -.364E+01 0.312E+01 -.190E+02   -.122E-01 0.716E-02 -.828E-02
   0.284E+01 -.228E+01 0.176E+02   -.285E+01 0.229E+01 -.176E+02   -.113E-01 -.171E-02 0.748E-03
   0.133E+02 -.345E+02 0.841E+02   -.134E+02 0.345E+02 -.839E+02   0.137E+00 0.469E-01 -.381E+00
   0.559E+01 -.321E+02 0.446E+02   -.564E+01 0.320E+02 -.445E+02   0.339E-01 -.137E-01 -.540E-01
   -.137E+02 0.864E+01 0.240E+02   0.137E+02 -.863E+01 -.240E+02   0.223E-01 -.101E-01 -.845E-02
   -.209E+02 0.579E+01 0.291E+02   0.209E+02 -.579E+01 -.291E+02   0.417E-02 0.822E-02 -.336E-01
   -.192E+01 -.784E+00 0.168E+02   0.193E+01 0.793E+00 -.168E+02   0.394E-02 -.230E-01 0.219E-02
   0.110E+01 0.721E+01 0.181E+02   -.111E+01 -.720E+01 -.181E+02   -.194E-02 -.736E-02 0.103E-01
   -.440E+01 -.248E+02 0.316E+02   0.438E+01 0.248E+02 -.316E+02   0.361E-01 -.688E-02 0.207E-01
   -.172E+01 -.113E+02 0.203E+02   0.173E+01 0.113E+02 -.203E+02   -.139E-01 -.142E-01 -.418E-03
   0.256E+02 -.110E+02 0.372E+02   -.255E+02 0.110E+02 -.371E+02   -.129E-01 0.383E-02 -.595E-01
   0.144E+02 -.125E+02 0.274E+02   -.144E+02 0.125E+02 -.273E+02   -.179E-01 0.319E-01 -.110E-01
   -.650E+01 0.165E+02 0.110E+03   0.667E+01 -.166E+02 -.110E+03   -.168E+00 0.132E+00 -.182E+00
   -.137E+02 -.264E+02 0.101E+03   0.136E+02 0.265E+02 -.101E+03   0.131E+00 -.117E+00 -.110E+00
   0.631E+01 -.285E+01 0.192E+02   -.628E+01 0.285E+01 -.192E+02   -.132E-01 -.342E-02 -.137E-01
   0.109E+01 0.570E+01 0.194E+02   -.109E+01 -.569E+01 -.194E+02   0.186E-03 -.204E-02 -.101E-02
   -.348E+02 0.357E+01 0.522E+02   0.348E+02 -.364E+01 -.522E+02   0.126E-01 0.446E-01 -.949E-01
   -.307E+02 -.136E+02 0.450E+02   0.307E+02 0.135E+02 -.450E+02   -.525E-01 0.505E-01 0.300E-01
   0.878E+01 -.182E+02 0.289E+02   -.879E+01 0.181E+02 -.289E+02   0.573E-02 0.206E-01 -.246E-01
   0.812E+00 -.636E+01 0.206E+02   -.834E+00 0.634E+01 -.206E+02   0.774E-02 0.130E-01 -.882E-02
   -.260E+02 -.284E+02 0.583E+02   0.261E+02 0.285E+02 -.584E+02   -.767E-01 -.578E-01 0.119E+00
   -.135E+02 -.245E+02 0.343E+02   0.136E+02 0.246E+02 -.343E+02   -.112E-01 -.513E-01 0.295E-01
   0.719E+00 0.296E+01 0.174E+02   -.708E+00 -.296E+01 -.174E+02   -.530E-02 -.629E-02 0.487E-02
   0.209E+01 0.302E+01 0.190E+02   -.208E+01 -.300E+01 -.190E+02   -.107E-01 -.494E-02 -.847E-02
   -.944E+01 0.108E+01 0.212E+02   0.944E+01 -.110E+01 -.212E+02   0.777E-02 0.729E-02 -.189E-02
   -.802E+01 -.317E+01 0.205E+02   0.803E+01 0.316E+01 -.205E+02   -.129E-01 0.101E-01 -.101E-01
   -.167E+02 -.873E+01 0.252E+02   0.167E+02 0.874E+01 -.252E+02   -.213E-01 -.679E-02 0.255E-03
   -.928E+01 -.756E+01 0.201E+02   0.929E+01 0.757E+01 -.201E+02   -.118E-01 -.108E-01 0.979E-02
   -.880E+01 -.115E+02 0.218E+02   0.881E+01 0.116E+02 -.218E+02   -.171E-01 -.307E-01 0.627E-02
   -.127E+01 -.267E+01 0.180E+02   0.127E+01 0.268E+01 -.180E+02   -.952E-02 -.141E-01 0.964E-02
   0.330E+01 0.780E+01 0.190E+02   -.329E+01 -.781E+01 -.190E+02   -.138E-02 0.393E-02 0.911E-02
   0.113E+02 0.177E+02 0.263E+02   -.113E+02 -.177E+02 -.263E+02   0.168E-01 0.232E-01 0.156E-01
   0.875E+00 0.142E+02 0.217E+02   -.876E+00 -.142E+02 -.217E+02   0.713E-02 0.612E-02 -.109E-02
   0.390E+00 0.287E+02 0.361E+02   -.365E+00 -.287E+02 -.361E+02   -.378E-01 0.122E-01 0.287E-01
   -.271E+01 0.543E+01 0.207E+02   0.271E+01 -.542E+01 -.207E+02   0.108E-01 -.116E-01 -.114E-01
   -.118E+02 0.152E+02 0.275E+02   0.118E+02 -.152E+02 -.275E+02   0.895E-02 -.648E-02 -.236E-01
   -.184E+01 -.528E+01 0.188E+02   0.184E+01 0.528E+01 -.188E+02   0.623E-02 0.420E-03 -.176E-02
   -.495E+01 0.205E+01 0.180E+02   0.493E+01 -.205E+01 -.180E+02   0.401E-02 -.432E-02 -.107E-01
   0.370E+00 -.327E+01 0.176E+02   -.353E+00 0.326E+01 -.176E+02   -.639E-02 -.987E-02 0.673E-02
   0.518E+01 0.381E+01 0.179E+02   -.517E+01 -.381E+01 -.179E+02   -.137E-01 0.100E-01 0.570E-02
   0.413E+00 -.229E+00 -.432E+03   -.388E+00 0.201E+00 0.432E+03   -.539E-01 0.308E-01 -.998E-01
   -.228E+03 0.155E+03 -.663E+03   0.279E+03 -.189E+03 0.665E+03   -.523E+02 0.357E+02 -.231E+01
   0.228E+03 -.155E+03 -.639E+03   -.279E+03 0.189E+03 0.636E+03   0.522E+02 -.357E+02 0.428E+01
 -----------------------------------------------------------------------------------------------
   0.586E-01 0.148E-01 -.463E+00   0.171E-12 -.142E-12 0.114E-12   -.946E-01 0.109E-01 0.469E+00
 
 
 POSITION                                       TOTAL-FORCE (eV/Angst)
 -----------------------------------------------------------------------------------
     11.98348      0.00342      0.01417        -0.009861      0.002678     -0.000782
     -0.34154      1.42665      0.01100         0.004052      0.030887      0.000967
      2.12355      0.00315      0.01249         0.020321     -0.019240      0.012280
      2.12326      1.42653      0.00641         0.008392      0.029487     -0.045644
     10.75099      2.13819      0.01213        -0.010317      0.019675      0.003166
     -1.57382      3.56123      0.01110        -0.026412      0.016833      0.000802
      0.89078      2.13854      0.00548        -0.031164      0.045317     -0.048027
      0.89099      3.56147      0.00181        -0.029589      0.048217     -0.138961
      4.58864      0.00346      0.01135         0.037127      0.056331     -0.009054
      4.58894      1.42623      0.00646         0.072297     -0.024281     -0.193218
      9.51854      4.27281      0.01369         0.019949     -0.013317     -0.001225
     -2.80632      5.69591      0.01434        -0.017636     -0.009753     -0.000060
      2.12300      4.27302      0.00000        -0.034948      0.103628     -0.240700
      2.12335      5.69594      0.00581        -0.004312     -0.075880     -0.007783
      7.05344      0.00333      0.01399         0.002037     -0.011022      0.001870
      7.05353      1.42635      0.01368        -0.007269      0.015125     -0.001600
      8.28610      6.40752      0.01601         0.022064     -0.027965     -0.000115
     -4.03885      7.83070      0.01636         0.000252     -0.008980      0.000104
      3.35586      6.40753      0.01007        -0.002064     -0.003830      0.002996
      3.35599      7.83072      0.01320        -0.017131     -0.016299      0.001028
     -0.34146      4.27290      0.00723         0.044047     -0.004008     -0.003747
     -0.34138      5.69591      0.00946        -0.010435      0.007741      0.007585
      3.35624      2.13791      0.00222         0.007544      0.001266     -0.370344
      3.35573      3.56155      0.00139         0.039596      0.049838     -0.246645
     -1.57395      6.40758      0.01311         0.039124     -0.011649     -0.003065
     -1.57385      7.83068      0.01438         0.009608     -0.003280      0.000443
      5.82093      2.13784      0.01033        -0.029140     -0.033160     -0.022062
      5.82114      3.56097      0.01156         0.012305     -0.005459      0.007722
      0.89092      6.40755      0.00907        -0.004561      0.000160      0.003290
      0.89106      7.83068      0.01235        -0.014269     -0.001583      0.000712
      4.58871      4.27293      0.00850        -0.010305     -0.014041      0.006782
      4.58852      5.69606      0.01149        -0.002020      0.003705      0.002942
      9.51845      0.00337      0.01490        -0.010496     -0.011601      0.000458
      9.51855      1.42644      0.01438        -0.029273      0.032106     -0.001470
      8.28593      2.13803      0.01453        -0.002041     -0.007194      0.001751
      8.28613      3.56115      0.01464        -0.012080     -0.003489     -0.002640
      7.05356      4.27269      0.01457        -0.000416     -0.010274      0.001852
      7.05362      5.69588      0.01553        -0.002354     -0.027379     -0.001570
      5.82112      6.40755      0.01489        -0.013584     -0.023020     -0.001323
      5.82102      7.83073      0.01579        -0.016124     -0.012679      0.000162
      7.05363      8.54227      0.01631         0.008346     -0.017457      0.001066
     -5.27149      9.96549      0.01495         0.000612      0.001056     -0.002954
     -2.80638      8.54234      0.01558         0.026745     -0.009123     -0.000057
     -2.80627      9.96553      0.01362         0.007055     -0.001548      0.008505
     -0.34149      8.54239      0.01378         0.025695     -0.010042     -0.001750
     -0.34138      9.96550      0.01354         0.011444      0.013733      0.002091
      2.12343      8.54232      0.01336        -0.009328     -0.010973     -0.001076
      2.12354      9.96544      0.01469        -0.028061      0.010762     -0.003402
      4.58846      8.54235      0.01505        -0.007335     -0.024793      0.001901
      4.58853      9.96550      0.01517        -0.022633      0.013292      0.001629
      3.04930      2.68154      2.64866        -0.042909      0.011253      0.231109
      4.02070      2.02068      2.71308        -1.613205      1.114311      0.377965
      2.07767      3.34267      2.58920         1.652661     -1.174078      0.668097
 -----------------------------------------------------------------------------------
    total drift:                               -0.036014      0.025711      0.005818


--------------------------------------------------------------------------------------------------------



  FREE ENERGIE OF THE ION-ELECTRON SYSTEM (eV)
  ---------------------------------------------------
  free  energy   TOTEN  =      -530.90261115 eV

  energy  without entropy=     -530.90261115  energy(sigma->0) =     -530.90261115
 


--------------------------------------------------------------------------------------------------------


    POTLOK:  cpu time    2.1671: real time    2.1784


--------------------------------------------------------------------------------------------------------


 writing wavefunctions
     LOOP+:  cpu time  868.1111: real time  875.6726
    4ORBIT:  cpu time    0.0000: real time    0.0000

 total amount of memory used by VASP MPI-rank0   698619. kBytes
=======================================================================

   base      :      30000. kBytes
   nonl-proj :     230539. kBytes
   fftplans  :      40716. kBytes
   grid      :     363125. kBytes
   one-center:        162. kBytes
   wavefun   :      34077. kBytes
 
  
  
 General timing and accounting informations for this job:
 ========================================================
  
                  Total CPU time used (sec):      912.299
                            User time (sec):      885.610
                          System time (sec):       26.690
                         Elapsed time (sec):      921.341
  
                   Maximum memory used (kb):     1241448.
                   Average memory used (kb):          N/A
  
                          Minor page faults:       139850
                          Major page faults:           85
                 Voluntary context switches:         3731
