 vasp.6.2.1 16May21 (build Nov 06 2021 14:46:37) complex                        
  
 executed on             LinuxIFC date 2025.03.03  17:48:27
 running on  112 total cores
 distrk:  each k-point on   56 cores,    2 groups
 distr:  one band on NCORE=   1 cores,   56 groups


--------------------------------------------------------------------------------------------------------


 INCAR:
   ALGO = Conjugate
   KPAR = 2
   NCORE = 32
   ISMEAR = 0
   SIGMA = 0.01
   PREC = Accurate
   EDIFF = 1E-7
   ENCUT = 1000
   ISIF = 0
   METAGGA = SCAN
   LASPH = .TRUE.
   SYMPREC = 1E-7

 POTCAR:    PAW_PBE C_h 06Feb2004                 
 POTCAR:    PAW_PBE O_h 06Feb2004                 
 -----------------------------------------------------------------------------
|                                                                             |
|           W    W    AA    RRRRR   N    N  II  N    N   GGGG   !!!           |
|           W    W   A  A   R    R  NN   N  II  NN   N  G    G  !!!           |
|           W    W  A    A  R    R  N N  N  II  N N  N  G       !!!           |
|           W WW W  AAAAAA  RRRRR   N  N N  II  N  N N  G  GGG   !            |
|           WW  WW  A    A  R   R   N   NN  II  N   NN  G    G                |
|           W    W  A    A  R    R  N    N  II  N    N   GGGG   !!!           |
|                                                                             |
|     The value NCORE = 32 specified in the INCAR file was overwritten,       |
|     because it was not compatible with the 56 processes available:          |
|     NCORE = 1                                                               |
|     was used instead, please check that this makes sense for your           |
|     machine.                                                                |
|                                                                             |
 -----------------------------------------------------------------------------

 -----------------------------------------------------------------------------
|                                                                             |
|           W    W    AA    RRRRR   N    N  II  N    N   GGGG   !!!           |
|           W    W   A  A   R    R  NN   N  II  NN   N  G    G  !!!           |
|           W    W  A    A  R    R  N N  N  II  N N  N  G       !!!           |
|           W WW W  AAAAAA  RRRRR   N  N N  II  N  N N  G  GGG   !            |
|           WW  WW  A    A  R   R   N   NN  II  N   NN  G    G                |
|           W    W  A    A  R    R  N    N  II  N    N   GGGG   !!!           |
|                                                                             |
|     For optimal performance we recommend to set                             |
|       NCORE = 2 up to number-of-cores-per-socket                            |
|     NCORE specifies how many cores store one orbital (NPAR=cpu/NCORE).      |
|     This setting can greatly improve the performance of VASP for DFT.       |
|     The default, NCORE=1 might be grossly inefficient on modern             |
|     multi-core architectures or massively parallel machines. Do your        |
|     own testing! More info at https://www.vasp.at/wiki/index.php/NCORE      |
|     Unfortunately you need to use the default for GW and RPA                |
|     calculations (for HF NCORE is supported but not extensively tested      |
|     yet).                                                                   |
|                                                                             |
 -----------------------------------------------------------------------------

 POTCAR:    PAW_PBE C_h 06Feb2004                 
   VRHFIN =C: s2p2                                                                                  
   LEXCH  = PE                                                                                      
   EATOM  =   147.1560 eV,   10.8157 Ry                                                             
                                                                                                    
   TITEL  = PAW_PBE C_h 06Feb2004                                                                   
   LULTRA =        F    use ultrasoft PP ?                                                          
   IUNSCR =        1    unscreen: 0-lin 1-nonlin 2-no                                               
   RPACOR =    0.800    partial core radius                                                         
   POMASS =   12.011; ZVAL   =    4.000    mass and valenz                                          
   RCORE  =    1.100    outmost cutoff radius                                                       
   RWIGS  =    1.630; RWIGS  =    0.863    wigner-seitz radius (au A)                               
   ENMAX  =  700.000; ENMIN  =  500.000 eV                                                          
   ICORE  =        2    local potential                                                             
   LCOR   =        T    correct aug charges                                                         
   LPAW   =        T    paw PP                                                                      
   EAUG   =  946.768                                                                                
   DEXC   =    0.000                                                                                
   RMAX   =    1.128    core radius for proj-oper                                                   
   RAUG   =    1.300    factor for augmentation sphere                                              
   RDEP   =    1.162    radius for radial grids                                                     
   RDEPT  =    1.088    core radius for aug-charge                                                  
                                                                                                    
   Atomic configuration                                                                             
    4 entries                                                                                       
     n  l   j            E        occ.                                                              
     1  0  0.50      -273.3789   2.0000                                                             
     2  0  0.50       -13.7508   2.0000                                                             
     2  1  0.50        -5.2854   2.0000                                                             
     3  2  1.50        -5.4423   0.0000                                                             
   Description                                                                                      
     l       E           TYP  RCUT    TYP  RCUT                                                     
     0    -13.7508458     23  1.100                                                                 
     0     -8.2022199     23  1.100                                                                 
     1     -5.2854383     23  1.100                                                                 
     1      1.1560700     23  1.100                                                                 
     2     -5.4423304      7  1.100                                                                 
  local pseudopotential read in
  partial core-charges read in
  partial kinetic energy density read in
  atomic valenz-charges read in
  non local Contribution for L=           0  read in
    real space projection operators read in
  non local Contribution for L=           0  read in
    real space projection operators read in
  non local Contribution for L=           1  read in
    real space projection operators read in
  non local Contribution for L=           1  read in
    real space projection operators read in
    PAW grid and wavefunctions read in
 
   number of l-projection  operators is LMAX  =           4
   number of lm-projection operators is LMMAX =           8
 
 POTCAR:    PAW_PBE O_h 06Feb2004                 
   VRHFIN =O: s2p4                                                                                  
   LEXCH  = PE                                                                                      
   EATOM  =   432.3788 eV,   31.7789 Ry                                                             
                                                                                                    
   TITEL  = PAW_PBE O_h 06Feb2004                                                                   
   LULTRA =        F    use ultrasoft PP ?                                                          
   IUNSCR =        1    unscreen: 0-lin 1-nonlin 2-no                                               
   RPACOR =    0.800    partial core radius                                                         
   POMASS =   16.000; ZVAL   =    6.000    mass and valenz                                          
   RCORE  =    1.100    outmost cutoff radius                                                       
   RWIGS  =    1.400; RWIGS  =    0.741    wigner-seitz radius (au A)                               
   ENMAX  =  700.000; ENMIN  =  500.000 eV                                                          
   ICORE  =        2    local potential                                                             
   LCOR   =        T    correct aug charges                                                         
   LPAW   =        T    paw PP                                                                      
   EAUG   =  888.804                                                                                
   DEXC   =    0.000                                                                                
   RMAX   =    1.128    core radius for proj-oper                                                   
   RAUG   =    1.300    factor for augmentation sphere                                              
   RDEP   =    1.125    radius for radial grids                                                     
   RDEPT  =    1.088    core radius for aug-charge                                                  
                                                                                                    
   Atomic configuration                                                                             
    4 entries                                                                                       
     n  l   j            E        occ.                                                              
     1  0  0.50      -514.6923   2.0000                                                             
     2  0  0.50       -23.9615   2.0000                                                             
     2  1  0.50        -9.0305   4.0000                                                             
     3  2  1.50        -9.5241   0.0000                                                             
   Description                                                                                      
     l       E           TYP  RCUT    TYP  RCUT                                                     
     0    -23.9615319     23  1.100                                                                 
     0    -25.3221145     23  1.100                                                                 
     1     -9.0304911     23  1.100                                                                 
     1     -5.4802209     23  1.100                                                                 
     2     -9.5240782      7  1.100                                                                 
  local pseudopotential read in
  partial core-charges read in
  partial kinetic energy density read in
  atomic valenz-charges read in
  non local Contribution for L=           0  read in
    real space projection operators read in
  non local Contribution for L=           0  read in
    real space projection operators read in
  non local Contribution for L=           1  read in
    real space projection operators read in
  non local Contribution for L=           1  read in
    real space projection operators read in
    PAW grid and wavefunctions read in
 
   number of l-projection  operators is LMAX  =           4
   number of lm-projection operators is LMMAX =           8
 
 -----------------------------------------------------------------------------
|                                                                             |
|               ----> ADVICE to this user running VASP <----                  |
|                                                                             |
|     You have a (more or less) 'large supercell' and for larger cells it     |
|     might be more efficient to use real-space projection operators.         |
|     Therefore, try LREAL= Auto in the INCAR file.                           |
|     Mind: For very accurate calculation, you might also keep the            |
|     reciprocal projection scheme (i.e. LREAL=.FALSE.).                      |
|                                                                             |
 -----------------------------------------------------------------------------

  PAW_PBE C_h 06Feb2004                 :
 energy of atom  1       EATOM= -147.1560
 kinetic energy error for atom=    0.0031 (will be added to EATOM!!)
  PAW_PBE O_h 06Feb2004                 :
 energy of atom  2       EATOM= -432.3788
 kinetic energy error for atom=    0.0171 (will be added to EATOM!!)
 
 
 POSCAR:  C  O
  positions in cartesian coordinates
  No initial velocities read in

 METAGGA = SCAN     LMAXTAU =  6    LMIXTAU =  F

 exchange correlation table for  LEXCH =        8
   RHO(1)=    0.500       N(1)  =     2000
   RHO(2)=  100.500       N(2)  =     4000
 


--------------------------------------------------------------------------------------------------------


 ion  position               nearest neighbor table
   1  0.972  0.000  0.001-  50 1.42   2 1.42  42 1.42
   2  0.039  0.134  0.001-   5 1.42   7 1.42   1 1.42
   3  0.172  0.000  0.001-  42 1.42  44 1.42   4 1.42
   4  0.239  0.134  0.000-   7 1.42   3 1.42  23 1.42
   5  0.972  0.200  0.001-   6 1.42   2 1.42  34 1.42
   6  0.039  0.334  0.001-   5 1.42  21 1.42  11 1.42
   7  0.172  0.200  0.000-   8 1.42   2 1.42   4 1.42
   8  0.239  0.334  0.000-  13 1.42   7 1.42  21 1.42
   9  0.372  0.000  0.001-  10 1.42  44 1.42  46 1.42
  10  0.439  0.134  0.000-  27 1.42   9 1.42  23 1.42
  11  0.972  0.400  0.001-  12 1.42  36 1.42   6 1.42
  12  0.039  0.534  0.001-  25 1.42  11 1.42  17 1.42
  13  0.372  0.400  0.000-   8 1.42  14 1.42  24 1.42
  14  0.439  0.534  0.000-  13 1.42  29 1.42  19 1.42
  15  0.572  0.000  0.001-  46 1.42  16 1.42  48 1.42
  16  0.639  0.134  0.001-  15 1.42  35 1.42  27 1.42
  17  0.972  0.600  0.001-  38 1.42  18 1.42  12 1.42
  18  0.039  0.734  0.001-  43 1.42  41 1.42  17 1.42
  19  0.572  0.600  0.001-  14 1.42  20 1.42  32 1.42
  20  0.639  0.734  0.001-  49 1.42  19 1.42  47 1.42
  21  0.172  0.400  0.000-  22 1.42   8 1.42   6 1.42
  22  0.239  0.534  0.000-  21 1.42  29 1.42  25 1.42
  23  0.372  0.200  0.000-  10 1.42   4 1.42  24 1.42
  24  0.439  0.334  0.000-  13 1.42  31 1.42  23 1.42
  25  0.172  0.600  0.001-  26 1.42  12 1.42  22 1.42
  26  0.239  0.734  0.001-  25 1.42  45 1.42  43 1.42
  27  0.572  0.200  0.001-  10 1.42  28 1.42  16 1.42
  28  0.639  0.334  0.001-  27 1.42  37 1.42  31 1.42
  29  0.372  0.600  0.000-  22 1.42  14 1.42  30 1.42
  30  0.439  0.734  0.001-  47 1.42  29 1.42  45 1.42
  31  0.572  0.400  0.000-  32 1.42  28 1.42  24 1.42
  32  0.639  0.534  0.001-  31 1.42  39 1.42  19 1.42
  33  0.772  0.000  0.001-  34 1.42  48 1.42  50 1.42
  34  0.839  0.134  0.001-  33 1.42   5 1.42  35 1.42
  35  0.772  0.200  0.001-  36 1.42  16 1.42  34 1.42
  36  0.839  0.334  0.001-  35 1.42  11 1.42  37 1.42
  37  0.772  0.400  0.001-  28 1.42  38 1.42  36 1.42
  38  0.839  0.534  0.001-  17 1.42  37 1.42  39 1.42
  39  0.772  0.600  0.001-  40 1.42  38 1.42  32 1.42
  40  0.839  0.734  0.001-  39 1.42  49 1.42  41 1.42
  41  0.972  0.800  0.001-  18 1.42  42 1.42  40 1.42
  42  0.039  0.934  0.001-   3 1.42  41 1.42   1 1.42
  43  0.172  0.800  0.001-  18 1.42  44 1.42  26 1.42
  44  0.239  0.934  0.001-   9 1.42  43 1.42   3 1.42
  45  0.372  0.800  0.001-  26 1.42  46 1.42  30 1.42
  46  0.439  0.934  0.001-  15 1.42  45 1.42   9 1.42
  47  0.572  0.800  0.001-  30 1.42  48 1.42  20 1.42
  48  0.639  0.934  0.001-  47 1.42  33 1.42  15 1.42
  49  0.772  0.800  0.001-  50 1.42  20 1.42  40 1.42
  50  0.839  0.934  0.001-  49 1.42   1 1.42  33 1.42
  51  0.373  0.251  0.140-  52 1.18  53 1.18
  52  0.421  0.189  0.144-  51 1.18
  53  0.325  0.313  0.137-  51 1.18
 
  LATTYP: Found a hexagonal cell.
 ALAT       =    12.3250000000
 C/A-ratio  =     1.6227180527
  
  Lattice vectors:
  
 A1 = (  12.3250000000,   0.0000000000,   0.0000000000)
 A2 = (  -6.1625000000,  10.6737631016,   0.0000000000)
 A3 = (   0.0000000000,   0.0000000000,  20.0000000000)


Analysis of symmetry for initial positions (statically):
=====================================================================
 Subroutine PRICEL returns:
 Original cell was already a primitive cell.
 

 Routine SETGRP: Setting up the symmetry group for a 
 hexagonal supercell.


 Subroutine GETGRP returns: Found  1 space group operations
 (whereof  1 operations were pure point group operations)
 out of a pool of 24 trial point group operations.


The static configuration has the point symmetry C_1 .


Analysis of symmetry for dynamics (positions and initial velocities):
=====================================================================
 Subroutine PRICEL returns:
 Original cell was already a primitive cell.
 

 Routine SETGRP: Setting up the symmetry group for a 
 hexagonal supercell.


 Subroutine GETGRP returns: Found  1 space group operations
 (whereof  1 operations were pure point group operations)
 out of a pool of 24 trial point group operations.


The dynamic configuration has the point symmetry C_1 .


 Subroutine INISYM returns: Found  1 space group operations
 (whereof  1 operations are pure point group operations),
 and found     1 'primitive' translations


----------------------------------------------------------------------------------------

                                     Primitive cell                                     

  volume of cell :    2631.0826

  direct lattice vectors                    reciprocal lattice vectors
    12.325000000  0.000000000  0.000000000     0.081135903  0.046843835  0.000000000
    -6.162500000 10.673763102  0.000000000     0.000000000  0.093687670  0.000000000
     0.000000000  0.000000000 20.000000000     0.000000000  0.000000000  0.050000000

  length of vectors
    12.325000000 12.325000000 20.000000000     0.093687670  0.093687670  0.050000000

  position of ions in fractional coordinates (direct lattice)
     0.972450841  0.000320818  0.000708389
     0.039118382  0.133659505  0.000550216
     0.172443627  0.000295449  0.000624535
     0.239096278  0.133647917  0.000320585
     0.972452058  0.200322012  0.000606523
     0.039128360  0.333643771  0.000555187
     0.172451764  0.200354552  0.000273959
     0.239124359  0.333665720  0.000090325
     0.372465565  0.000324403  0.000567391
     0.439137473  0.133619939  0.000322923
     0.972449824  0.400309362  0.000684513
     0.039124981  0.533636789  0.000716763
     0.372416176  0.400329481  0.000000000
     0.439099602  0.533638981  0.000290518
     0.572443676  0.000312125  0.000699475
     0.639110207  0.133631751  0.000684093
     0.972452703  0.600305653  0.000800361
     0.039124495  0.733640359  0.000818141
     0.572433471  0.600306242  0.000503618
     0.639111888  0.733641879  0.000659881
     0.172454630  0.400318228  0.000361306
     0.239120185  0.533636548  0.000473136
     0.372459750  0.200295993  0.000111246
     0.439107096  0.333673419  0.000069702
     0.172452155  0.600311506  0.000655425
     0.239123371  0.733638574  0.000718912
     0.572431082  0.200289171  0.000516621
     0.639112773  0.333618630  0.000577970
     0.372439808  0.600308022  0.000453556
     0.439116090  0.733637858  0.000617737
     0.572469358  0.400320504  0.000424897
     0.639119408  0.533650873  0.000574513
     0.772445723  0.000315427  0.000745201
     0.839116277  0.133640203  0.000719132
     0.772440513  0.200307432  0.000726291
     0.839120241  0.333635728  0.000731834
     0.772446320  0.400298367  0.000728722
     0.839118980  0.533633964  0.000776376
     0.772456143  0.600308173  0.000744639
     0.839115033  0.733643180  0.000789390
     0.972455313  0.800305582  0.000815291
     0.039114714  0.933643289  0.000747563
     0.172457971  0.800312211  0.000779216
     0.239134551  0.933647193  0.000681063
     0.372451396  0.800316674  0.000689249
     0.439124489  0.933644769  0.000676788
     0.572441101  0.800310054  0.000668168
     0.639115067  0.933638985  0.000734556
     0.772445098  0.800313187  0.000752577
     0.839116614  0.933644338  0.000758538
     0.373021009  0.251226878  0.140307756
     0.420879805  0.189313152  0.143528849
     0.325156981  0.313167186  0.137335013

  ion indices of the primitive-cell ions
   primitive index   ion index
                 1           1
                 2           2
                 3           3
                 4           4
                 5           5
                 6           6
                 7           7
                 8           8
                 9           9
                10          10
                11          11
                12          12
                13          13
                14          14
                15          15
                16          16
                17          17
                18          18
                19          19
                20          20
                21          21
                22          22
                23          23
                24          24
                25          25
                26          26
                27          27
                28          28
                29          29
                30          30
                31          31
                32          32
                33          33
                34          34
                35          35
                36          36
                37          37
                38          38
                39          39
                40          40
                41          41
                42          42
                43          43
                44          44
                45          45
                46          46
                47          47
                48          48
                49          49
                50          50
                51          51
                52          52
                53          53

----------------------------------------------------------------------------------------

 
 
 KPOINTS: auto                                    

Automatic generation of k-mesh.
 Grid dimensions read from file:
 generate k-points for:    1    1    1

 Generating k-lattice:

  Cartesian coordinates                     Fractional coordinates (reciprocal lattice)
     0.081135903  0.046843835  0.000000000     1.000000000 -0.000000000  0.000000000
     0.000000000  0.093687670  0.000000000     0.000000000  1.000000000  0.000000000
     0.000000000  0.000000000  0.050000000     0.000000000  0.000000000  1.000000000

  Length of vectors
     0.093687670  0.093687670  0.050000000

  Shift w.r.t. Gamma in fractional coordinates (k-lattice)
     0.000000000  0.000000000  0.000000000

 
 Subroutine IBZKPT returns following result:
 ===========================================
 
 Found      1 irreducible k-points:
 
 Following reciprocal coordinates:
            Coordinates               Weight
  0.000000  0.000000  0.000000      1.000000
 
 Following cartesian coordinates:
            Coordinates               Weight
  0.000000  0.000000  0.000000      1.000000
 


--------------------------------------------------------------------------------------------------------




 Dimension of arrays:
   k-points           NKPTS =      1   k-points in BZ     NKDIM =      1   number of bands    NBANDS=    168
   number of dos      NEDOS =    301   number of ions     NIONS =     53
   non local maximal  LDIM  =      4   non local SUM 2l+1 LMDIM =      8
   total plane-waves  NPLWV = ******
   max r-space proj   IRMAX =      1   max aug-charges    IRDMAX=   9736
   dimension x,y,z NGX =   128 NGY =  128 NGZ =  210
   dimension x,y,z NGXF=   256 NGYF=  256 NGZF=  420
   support grid    NGXF=   256 NGYF=  256 NGZF=  420
   ions per type =              51   2
   NGX,Y,Z   is equivalent  to a cutoff of  17.27, 17.27, 17.46 a.u.
   NGXF,Y,Z  is equivalent  to a cutoff of  34.53, 34.53, 34.91 a.u.

 SYSTEM =  unknown system                          
 POSCAR =   C  O                                   

 Startparameter for this run:
   NWRITE =      2    write-flag & timer
   PREC   = accura    normal or accurate (medium, high low for compatibility)
   ISTART =      0    job   : 0-new  1-cont  2-samecut
   ICHARG =      2    charge: 1-file 2-atom 10-const
   ISPIN  =      1    spin polarized calculation?
   LNONCOLLINEAR =      F non collinear calculations
   LSORBIT =      F    spin-orbit coupling
   INIWAV =      1    electr: 0-lowe 1-rand  2-diag
   LASPH  =      T    aspherical Exc in radial PAW
 Electronic Relaxation 1
   ENCUT  = 1000.0 eV  73.50 Ry    8.57 a.u.  31.78 31.78 51.57*2*pi/ulx,y,z
   ENINI  = 1000.0     initial cutoff
   ENAUG  =  946.8 eV  augmentation charge cutoff
   NELM   =     60;   NELMIN=  2; NELMDL= -5     # of ELM steps 
   EDIFF  = 0.1E-06   stopping-criterion for ELM
   LREAL  =      F    real-space projection
   NLSPLINE    = F    spline interpolate recip. space projectors
   LCOMPAT=      F    compatible to vasp.4.4
   GGA_COMPAT  = T    GGA compatible to vasp.4.4-vasp.4.6
   LMAXPAW     = -100 max onsite density
   LMAXMIX     =    2 max onsite mixed and CHGCAR
   VOSKOWN=      0    Vosko Wilk Nusair interpolation
   ROPT   =    0.00000   0.00000
 Ionic relaxation
   EDIFFG = 0.1E-05   stopping-criterion for IOM
   NSW    =      0    number of steps for IOM
   NBLOCK =      1;   KBLOCK =      1    inner block; outer block 
   IBRION =     -1    ionic relax: 0-MD 1-quasi-New 2-CG
   NFREE  =      0    steps in history (QN), initial steepest desc. (CG)
   ISIF   =      0    stress and relaxation
   IWAVPR =     10    prediction:  0-non 1-charg 2-wave 3-comb
   ISYM   =      2    0-nonsym 1-usesym 2-fastsym
   LCORR  =      T    Harris-Foulkes like correction to forces

   POTIM  = 0.5000    time-step for ionic-motion
   TEIN   =    0.0    initial temperature
   TEBEG  =    0.0;   TEEND  =   0.0 temperature during run
   SMASS  =  -3.00    Nose mass-parameter (am)
   estimated Nose-frequenzy (Omega)   =  0.10E-29 period in steps = 0.13E+47 mass=  -0.347E-26a.u.
   SCALEE = 1.0000    scale energy and forces
   NPACO  =    256;   APACO  = 16.0  distance and # of slots for P.C.
   PSTRESS=    0.0 pullay stress

  Mass of Ions in am
   POMASS =  12.01 16.00
  Ionic Valenz
   ZVAL   =   4.00  6.00
  Atomic Wigner-Seitz radii
   RWIGS  =  -1.00 -1.00
  virtual crystal weights 
   VCA    =   1.00  1.00
   NELECT =     216.0000    total number of electrons
   NUPDOWN=      -1.0000    fix difference up-down

 DOS related values:
   EMIN   =  10.00;   EMAX   =-10.00  energy-range for DOS
   EFERMI =   0.00
   ISMEAR =     0;   SIGMA  =   0.01  broadening in eV -4-tet -1-fermi 0-gaus

 Electronic relaxation 2 (details)
   IALGO  =     58    algorithm
   LDIAG  =      T    sub-space diagonalisation (order eigenvalues)
   LSUBROT=      F    optimize rotation matrix (better conditioning)
   TURBO    =      0    0=normal 1=particle mesh
   IRESTART =      0    0=no restart 2=restart with 2 vectors
   NREBOOT  =      0    no. of reboots
   NMIN     =      0    reboot dimension
   EREF     =   0.00    reference energy to select bands
   IMIX   =      4    mixing-type and parameters
     AMIX     =   0.40;   BMIX     =  1.00
     AMIX_MAG =   1.60;   BMIX_MAG =  1.00
     AMIN     =   0.10
     WC   =   100.;   INIMIX=   1;  MIXPRE=   1;  MAXMIX= -45

 Intra band minimization:
   WEIMIN = 0.0000     energy-eigenvalue tresh-hold
   EBREAK =  0.15E-09  absolut break condition
   DEPER  =   0.30     relativ break condition  

   TIME   =   0.40     timestep for ELM

  volume/ion in A,a.u.               =      49.64       335.01
  Fermi-wavevector in a.u.,A,eV,Ry     =   0.711510  1.344560  6.887909  0.506247
  Thomas-Fermi vector in A             =   1.798641
 
 Write flags
   LWAVE        =      T    write WAVECAR
   LDOWNSAMPLE  =      F    k-point downsampling of WAVECAR
   LCHARG       =      T    write CHGCAR
   LVTOT        =      F    write LOCPOT, total local potential
   LVHAR        =      F    write LOCPOT, Hartree potential only
   LELF         =      F    write electronic localiz. function (ELF)
   LORBIT       =      0    0 simple, 1 ext, 2 COOP (PROOUT), +10 PAW based schemes


 Dipole corrections
   LMONO  =      F    monopole corrections only (constant potential shift)
   LDIPOL =      F    correct potential (dipole corrections)
   IDIPOL =      0    1-x, 2-y, 3-z, 4-all directions 
   EPSILON=  1.0000000 bulk dielectric constant

 Exchange correlation treatment:
   GGA     =    --    GGA type
   LEXCH   =     8    internal setting for exchange type
   VOSKOWN=      0    Vosko Wilk Nusair interpolation
   LHFCALC =     F    Hartree Fock is set to
   LHFONE  =     F    Hartree Fock one center treatment
   AEXX    =    0.0000 exact exchange contribution

 Linear response parameters
   LEPSILON=     F    determine dielectric tensor
   LRPA    =     F    only Hartree local field effects (RPA)
   LNABLA  =     F    use nabla operator in PAW spheres
   LVEL    =     F    velocity operator in full k-point grid
   LINTERFAST=   F  fast interpolation
   KINTER  =     0    interpolate to denser k-point grid
   CSHIFT  =0.1000    complex shift for real part using Kramers Kronig
   OMEGAMAX=  -1.0    maximum frequency
   DEG_THRESHOLD= 0.2000000E-02 threshold for treating states as degnerate
   RTIME   =   -0.100 relaxation time in fs
  (WPLASMAI=    0.000 imaginary part of plasma frequency in eV, 0.658/RTIME)
   DFIELD  = 0.0000000 0.0000000 0.0000000 field for delta impulse in time
 
 Orbital magnetization related:
   ORBITALMAG=     F  switch on orbital magnetization
   LCHIMAG   =     F  perturbation theory with respect to B field
   DQ        =  0.001000  dq finite difference perturbation B field
   LLRAUG    =     F  two centre corrections for induced B field



--------------------------------------------------------------------------------------------------------


 Static calculation
 charge density and potential will be updated during run
 non-spin polarized calculation
 Conjugate gradient for all bands (Freysoldt, et al. PRB 79, 241103 (2009))
 preconditioned conjugated gradient                                        
 perform sub-space diagonalisation
    before iterative eigenvector-optimisation
 modified Broyden-mixing scheme, WC =      100.0
 initial mixing is a Kerker type mixing with AMIX =  0.4000 and BMIX =      1.0000
 Hartree-type preconditioning will be used
 using additional bands           60
 reciprocal scheme for non local part
 use partial core corrections
 no Harris-corrections to forces 
 use gradient corrections 
 use of overlap-Matrix (Vanderbilt PP)
 Gauss-broadening in eV      SIGMA  =   0.01


--------------------------------------------------------------------------------------------------------


  energy-cutoff  :     1000.00
  volume of cell :     2631.08
      direct lattice vectors                 reciprocal lattice vectors
    12.325000000  0.000000000  0.000000000     0.081135903  0.046843835  0.000000000
    -6.162500000 10.673763102  0.000000000     0.000000000  0.093687670  0.000000000
     0.000000000  0.000000000 20.000000000     0.000000000  0.000000000  0.050000000

  length of vectors
    12.325000000 12.325000000 20.000000000     0.093687670  0.093687670  0.050000000


 
 k-points in units of 2pi/SCALE and weight: auto                                    
   0.00000000  0.00000000  0.00000000       1.000
 
 k-points in reciprocal lattice and weights: auto                                    
   0.00000000  0.00000000  0.00000000       1.000
 
 position of ions in fractional coordinates (direct lattice) 
   0.97245084  0.00032082  0.00070839
   0.03911838  0.13365950  0.00055022
   0.17244363  0.00029545  0.00062454
   0.23909628  0.13364792  0.00032058
   0.97245206  0.20032201  0.00060652
   0.03912836  0.33364377  0.00055519
   0.17245176  0.20035455  0.00027396
   0.23912436  0.33366572  0.00009033
   0.37246557  0.00032440  0.00056739
   0.43913747  0.13361994  0.00032292
   0.97244982  0.40030936  0.00068451
   0.03912498  0.53363679  0.00071676
   0.37241618  0.40032948  0.00000000
   0.43909960  0.53363898  0.00029052
   0.57244368  0.00031213  0.00069947
   0.63911021  0.13363175  0.00068409
   0.97245270  0.60030565  0.00080036
   0.03912449  0.73364036  0.00081814
   0.57243347  0.60030624  0.00050362
   0.63911189  0.73364188  0.00065988
   0.17245463  0.40031823  0.00036131
   0.23912018  0.53363655  0.00047314
   0.37245975  0.20029599  0.00011125
   0.43910710  0.33367342  0.00006970
   0.17245216  0.60031151  0.00065542
   0.23912337  0.73363857  0.00071891
   0.57243108  0.20028917  0.00051662
   0.63911277  0.33361863  0.00057797
   0.37243981  0.60030802  0.00045356
   0.43911609  0.73363786  0.00061774
   0.57246936  0.40032050  0.00042490
   0.63911941  0.53365087  0.00057451
   0.77244572  0.00031543  0.00074520
   0.83911628  0.13364020  0.00071913
   0.77244051  0.20030743  0.00072629
   0.83912024  0.33363573  0.00073183
   0.77244632  0.40029837  0.00072872
   0.83911898  0.53363396  0.00077638
   0.77245614  0.60030817  0.00074464
   0.83911503  0.73364318  0.00078939
   0.97245531  0.80030558  0.00081529
   0.03911471  0.93364329  0.00074756
   0.17245797  0.80031221  0.00077922
   0.23913455  0.93364719  0.00068106
   0.37245140  0.80031667  0.00068925
   0.43912449  0.93364477  0.00067679
   0.57244110  0.80031005  0.00066817
   0.63911507  0.93363899  0.00073456
   0.77244510  0.80031319  0.00075258
   0.83911661  0.93364434  0.00075854
   0.37302101  0.25122688  0.14030776
   0.42087980  0.18931315  0.14352885
   0.32515698  0.31316719  0.13733501
 
 position of ions in cartesian coordinates  (Angst):
  11.98347958  0.00342433  0.01416777
  -0.34154264  1.42664989  0.01100432
   2.12354700  0.00315355  0.01249070
   2.12325634  1.42652621  0.00641170
  10.75098721  2.13818970  0.01213047
  -1.57382270  3.56123457  0.01110375
   0.89078307  2.13853702  0.00547917
   0.89099273  3.56146885  0.00180651
   4.58863896  0.00346260  0.01134782
   4.58893648  1.42622757  0.00645846
   9.51853763  4.27280730  0.01369027
  -2.80632132  5.69591267  0.01433526
   2.12299894  4.27302204  0.00000000
   2.12335237  5.69593607  0.00581036
   7.05344483  0.00333155  0.01398950
   7.05352764  1.42635365  0.01368187
   8.28609598  6.40752033  0.01600723
  -4.03884931  7.83070339  0.01636283
   3.35585531  6.40752662  0.01007237
   3.35598594  7.83071962  0.01319763
  -0.34145776  4.27290193  0.00722612
  -0.34137895  5.69591010  0.00946273
   3.35624236  2.13791198  0.00222492
   3.35573251  3.56155103  0.00139405
  -1.57394684  6.40758280  0.01310850
  -1.57385216  7.83068434  0.01437823
   5.82093107  2.13783916  0.01033241
   5.82114012  3.56096622  0.01155939
   0.89092245  6.40754561  0.00907111
   0.89106251  7.83067670  0.01235474
   4.58870974  4.27292622  0.00849795
   4.58852320  5.69606300  0.01149026
   9.51844972  0.00336679  0.01490402
   9.51855036  1.42644387  0.01438264
   8.28593477  2.13803408  0.01452582
   8.28612680  3.56114872  0.01463668
   7.05356221  4.27268994  0.01457444
   7.05362213  5.69588251  0.01552751
   5.82112285  6.40754723  0.01489279
   5.82101669  7.83073350  0.01578780
   7.05362858  8.54227219  0.01630582
  -5.27148792  9.96548729  0.01495127
  -2.80637951  8.54234295  0.01558431
  -2.80626749  9.96552896  0.01362126
  -0.34148805  8.54239058  0.01378498
  -0.34137657  9.96550309  0.01353576
   2.12342586  8.54231992  0.01336337
   2.12354296  9.96544135  0.01469111
   4.58845581  8.54235337  0.01505154
   4.58852904  9.96549848  0.01517076
   3.04929830  2.68153618  2.80615512
   4.02070129  2.02068374  2.87057698
   2.07766701  3.34267235  2.74670025
 


--------------------------------------------------------------------------------------------------------


 k-point   1 :   0.0000 0.0000 0.0000  plane waves:  189031

 maximum and minimum number of plane-waves per node :    189031   189031

 maximum number of plane-waves:    189031
 maximum index in each direction: 
   IXMAX=   31   IYMAX=   31   IZMAX=   51
   IXMIN=  -31   IYMIN=  -31   IZMIN=  -51


 serial   3D FFT for wavefunctions
 parallel 3D FFT for charge:
    minimum data exchange during FFTs selected (reduces bandwidth)


 total amount of memory used by VASP MPI-rank0   556209. kBytes
=======================================================================

   base      :      30000. kBytes
   nonl-proj :     184518. kBytes
   fftplans  :      31725. kBytes
   grid      :     282516. kBytes
   one-center:        162. kBytes
   wavefun   :      27288. kBytes
 
     INWAV:  cpu time    0.0001: real time    0.0049
 Broyden mixing: mesh for mixing (old mesh)
   NGX = 63   NGY = 63   NGZ =103
  (NGX  =256   NGY  =256   NGZ  =420)
  gives a total of 408807 points

 initial charge density was supplied:
 charge density of overlapping atoms calculated
 number of electron     216.0000000 magnetization 
 keeping initial charge density in first step


--------------------------------------------------------------------------------------------------------


 Maximum index for augmentation-charges          459 (set IRDMAX)


--------------------------------------------------------------------------------------------------------


 First call to EWALD:  gamma=   0.128
 Maximum number of real-space cells 3x 3x 2
 Maximum number of reciprocal cells 3x 3x 4

    FEWALD:  cpu time    0.0027: real time    0.0028


--------------------------------------- Iteration      1(   1)  ---------------------------------------


    POTLOK:  cpu time    1.4671: real time    1.4772
    SETDIJ:  cpu time    0.2433: real time    0.2443
    TRIAL :  cpu time   21.6982: real time   21.8953
    CORREC:  cpu time    0.0004: real time    0.0006
    --------------------------------------------
      LOOP:  cpu time   23.4183: real time   23.6396

 eigenvalue-minimisations  :   336
 total energy-change (2. order) : 0.2430771E+04  (-0.1181243E+05)
 number of electron     216.0000000 magnetization 
 augmentation part      216.0000000 magnetization 

 Free energy of the ion-electron system (eV)
  ---------------------------------------------------
  alpha Z        PSCENC =        59.93625244
  Ewald energy   TEWEN  =     34916.46917963
  -Hartree energ DENC   =    -41090.50053102
  -exchange      EXHF   =         0.00000000
  -V(xc)+E(xc)   XCENC  =       603.26569382
  PAW double counting   =      6339.73130699    -6197.22120962
  entropy T*S    EENTRO =        -0.00000000
  eigenvalues    EBANDS =      -570.43356008
  atomic energy  EATOM  =      8369.52358910
  ---------------------------------------------------
  free energy    TOTEN  =      2430.77072128 eV

  energy without entropy =     2430.77072128  energy(sigma->0) =     2430.77072128


--------------------------------------------------------------------------------------------------------




--------------------------------------- Iteration      1(   2)  ---------------------------------------


    TRIAL :  cpu time   35.4471: real time   35.7712
    CORREC:  cpu time    0.0001: real time    0.0001
    --------------------------------------------
      LOOP:  cpu time   35.5130: real time   35.8414

 eigenvalue-minimisations  :   672
 total energy-change (2. order) :-0.2490932E+04  (-0.2376489E+04)
 number of electron     216.0000000 magnetization 
 augmentation part      216.0000000 magnetization 

 Free energy of the ion-electron system (eV)
  ---------------------------------------------------
  alpha Z        PSCENC =        59.93625244
  Ewald energy   TEWEN  =     34916.46917963
  -Hartree energ DENC   =    -41090.50053102
  -exchange      EXHF   =         0.00000000
  -V(xc)+E(xc)   XCENC  =       603.26569382
  PAW double counting   =      6339.73130699    -6197.22120962
  entropy T*S    EENTRO =        -0.00000000
  eigenvalues    EBANDS =     -3061.36512454
  atomic energy  EATOM  =      8369.52358910
  ---------------------------------------------------
  free energy    TOTEN  =       -60.16084319 eV

  energy without entropy =      -60.16084319  energy(sigma->0) =      -60.16084319


--------------------------------------------------------------------------------------------------------




--------------------------------------- Iteration      1(   3)  ---------------------------------------


    TRIAL :  cpu time   23.9753: real time   24.1727
    CORREC:  cpu time    0.0001: real time    0.0001
    --------------------------------------------
      LOOP:  cpu time   24.0001: real time   24.2076

 eigenvalue-minimisations  :   392
 total energy-change (2. order) :-0.5349085E+03  (-0.5320031E+03)
 number of electron     216.0000000 magnetization 
 augmentation part      216.0000000 magnetization 

 Free energy of the ion-electron system (eV)
  ---------------------------------------------------
  alpha Z        PSCENC =        59.93625244
  Ewald energy   TEWEN  =     34916.46917963
  -Hartree energ DENC   =    -41090.50053102
  -exchange      EXHF   =         0.00000000
  -V(xc)+E(xc)   XCENC  =       603.26569382
  PAW double counting   =      6339.73130699    -6197.22120962
  entropy T*S    EENTRO =        -0.00000000
  eigenvalues    EBANDS =     -3596.27367138
  atomic energy  EATOM  =      8369.52358910
  ---------------------------------------------------
  free energy    TOTEN  =      -595.06939003 eV

  energy without entropy =     -595.06939003  energy(sigma->0) =     -595.06939003


--------------------------------------------------------------------------------------------------------




--------------------------------------- Iteration      1(   4)  ---------------------------------------


    TRIAL :  cpu time   26.3113: real time   26.5370
    CORREC:  cpu time    0.0004: real time    0.0006
    --------------------------------------------
      LOOP:  cpu time   26.4352: real time   26.6655

 eigenvalue-minimisations  :   448
 total energy-change (2. order) :-0.2448798E+02  (-0.2433514E+02)
 number of electron     216.0000000 magnetization 
 augmentation part      216.0000000 magnetization 

 Free energy of the ion-electron system (eV)
  ---------------------------------------------------
  alpha Z        PSCENC =        59.93625244
  Ewald energy   TEWEN  =     34916.46917963
  -Hartree energ DENC   =    -41090.50053102
  -exchange      EXHF   =         0.00000000
  -V(xc)+E(xc)   XCENC  =       603.26569382
  PAW double counting   =      6339.73130699    -6197.22120962
  entropy T*S    EENTRO =        -0.00000000
  eigenvalues    EBANDS =     -3620.76165414
  atomic energy  EATOM  =      8369.52358910
  ---------------------------------------------------
  free energy    TOTEN  =      -619.55737279 eV

  energy without entropy =     -619.55737279  energy(sigma->0) =     -619.55737279


--------------------------------------------------------------------------------------------------------




--------------------------------------- Iteration      1(   5)  ---------------------------------------


    TRIAL :  cpu time   26.2994: real time   26.5032
    CORREC:  cpu time    0.0001: real time    0.0001
    CHARGE:  cpu time    2.2887: real time    2.3054
    --------------------------------------------
      LOOP:  cpu time   28.6580: real time   28.8790

 eigenvalue-minimisations  :   448
 total energy-change (2. order) :-0.8647272E+00  (-0.8608139E+00)
 number of electron     216.0000000 magnetization 
 augmentation part       -0.4311909 magnetization 

 Free energy of the ion-electron system (eV)
  ---------------------------------------------------
  alpha Z        PSCENC =        59.93625244
  Ewald energy   TEWEN  =     34916.46917963
  -Hartree energ DENC   =    -41090.50053102
  -exchange      EXHF   =         0.00000000
  -V(xc)+E(xc)   XCENC  =       603.26569382
  PAW double counting   =      6339.73130699    -6197.22120962
  entropy T*S    EENTRO =        -0.00000000
  eigenvalues    EBANDS =     -3621.62638136
  atomic energy  EATOM  =      8369.52358910
  ---------------------------------------------------
  free energy    TOTEN  =      -620.42210001 eV

  energy without entropy =     -620.42210001  energy(sigma->0) =     -620.42210001


--------------------------------------------------------------------------------------------------------




--------------------------------------- Iteration      1(   6)  ---------------------------------------


    POTLOK:  cpu time    1.4432: real time    1.4510
    SETDIJ:  cpu time    0.2483: real time    0.2493
    TRIAL :  cpu time   15.4694: real time   15.6021
    CORREC:  cpu time    7.1076: real time    7.1660
    CHARGE:  cpu time    2.2689: real time    2.3004
    --------------------------------------------
      LOOP:  cpu time   26.5894: real time   26.8506

 eigenvalue-minimisations  :     0
 total energy-change (2. order) : 0.1037568E+03  (-0.1204381E+02)
 number of electron     216.0000000 magnetization 
 augmentation part       -0.4904406 magnetization 

 Free energy of the ion-electron system (eV)
  ---------------------------------------------------
  alpha Z        PSCENC =        59.93625244
  Ewald energy   TEWEN  =     34916.46917963
  -Hartree energ DENC   =    -42424.58023881
  -exchange      EXHF   =         0.00000000
  -V(xc)+E(xc)   XCENC  =       669.63953148
  PAW double counting   =    113794.06851126  -113657.27766338
  entropy T*S    EENTRO =        -0.00000000
  eigenvalues    EBANDS =     -2244.44442416
  atomic energy  EATOM  =      8369.52358910
  ---------------------------------------------------
  free energy    TOTEN  =      -516.66526244 eV

  energy without entropy =     -516.66526244  energy(sigma->0) =     -516.66526244


--------------------------------------------------------------------------------------------------------




--------------------------------------- Iteration      1(   7)  ---------------------------------------


    POTLOK:  cpu time    1.4312: real time    1.4386
    SETDIJ:  cpu time    0.2410: real time    0.2418
    TRIAL :  cpu time   15.4695: real time   15.5974
    CORREC:  cpu time    7.1051: real time    7.1665
    CHARGE:  cpu time    2.2832: real time    2.3013
    --------------------------------------------
      LOOP:  cpu time   26.5937: real time   26.8109

 eigenvalue-minimisations  :     0
 total energy-change (2. order) :-0.1205228E+02  (-0.1521209E+01)
 number of electron     216.0000000 magnetization 
 augmentation part       -0.5201137 magnetization 

 Free energy of the ion-electron system (eV)
  ---------------------------------------------------
  alpha Z        PSCENC =        59.93625244
  Ewald energy   TEWEN  =     34916.46917963
  -Hartree energ DENC   =    -41999.73836754
  -exchange      EXHF   =         0.00000000
  -V(xc)+E(xc)   XCENC  =       649.84850518
  PAW double counting   =    132266.06474554  -132126.52037364
  entropy T*S    EENTRO =        -0.00000000
  eigenvalues    EBANDS =     -2664.30107643
  atomic energy  EATOM  =      8369.52358910
  ---------------------------------------------------
  free energy    TOTEN  =      -528.71754571 eV

  energy without entropy =     -528.71754571  energy(sigma->0) =     -528.71754571


--------------------------------------------------------------------------------------------------------




--------------------------------------- Iteration      1(   8)  ---------------------------------------


    POTLOK:  cpu time    1.4410: real time    1.4490
    SETDIJ:  cpu time    0.2406: real time    0.2413
    TRIAL :  cpu time   15.4697: real time   15.5853
    CORREC:  cpu time    7.1387: real time    7.1894
    CHARGE:  cpu time    2.2784: real time    2.3023
    --------------------------------------------
      LOOP:  cpu time   26.6315: real time   26.8339

 eigenvalue-minimisations  :     0
 total energy-change (2. order) :-0.1522202E+01  (-0.4929868E+00)
 number of electron     216.0000000 magnetization 
 augmentation part       -0.5182020 magnetization 

 Free energy of the ion-electron system (eV)
  ---------------------------------------------------
  alpha Z        PSCENC =        59.93625244
  Ewald energy   TEWEN  =     34916.46917963
  -Hartree energ DENC   =    -41977.50836134
  -exchange      EXHF   =         0.00000000
  -V(xc)+E(xc)   XCENC  =       648.40825266
  PAW double counting   =    140536.17037555  -140396.15849507
  entropy T*S    EENTRO =        -0.00000000
  eigenvalues    EBANDS =     -2687.08054064
  atomic energy  EATOM  =      8369.52358910
  ---------------------------------------------------
  free energy    TOTEN  =      -530.23974766 eV

  energy without entropy =     -530.23974766  energy(sigma->0) =     -530.23974766


--------------------------------------------------------------------------------------------------------




--------------------------------------- Iteration      1(   9)  ---------------------------------------


    POTLOK:  cpu time    1.4441: real time    1.4518
    SETDIJ:  cpu time    0.2357: real time    0.2364
    TRIAL :  cpu time   15.4598: real time   15.5799
    CORREC:  cpu time    7.1091: real time    7.1699
    CHARGE:  cpu time    2.2874: real time    2.3037
    --------------------------------------------
      LOOP:  cpu time   26.6199: real time   26.8300

 eigenvalue-minimisations  :     0
 total energy-change (2. order) :-0.4925385E+00  (-0.1909922E+00)
 number of electron     216.0000000 magnetization 
 augmentation part       -0.5128089 magnetization 

 Free energy of the ion-electron system (eV)
  ---------------------------------------------------
  alpha Z        PSCENC =        59.93625244
  Ewald energy   TEWEN  =     34916.46917963
  -Hartree energ DENC   =    -41983.82143123
  -exchange      EXHF   =         0.00000000
  -V(xc)+E(xc)   XCENC  =       648.16500929
  PAW double counting   =    146590.87917365  -146450.67443768
  entropy T*S    EENTRO =        -0.00000000
  eigenvalues    EBANDS =     -2681.20962138
  atomic energy  EATOM  =      8369.52358910
  ---------------------------------------------------
  free energy    TOTEN  =      -530.73228618 eV

  energy without entropy =     -530.73228618  energy(sigma->0) =     -530.73228618


--------------------------------------------------------------------------------------------------------




--------------------------------------- Iteration      1(  10)  ---------------------------------------


    POTLOK:  cpu time    1.4478: real time    1.4676
    SETDIJ:  cpu time    0.2255: real time    0.2262
    TRIAL :  cpu time   15.4693: real time   15.5833
    CORREC:  cpu time    7.1245: real time    7.1723
    CHARGE:  cpu time    2.2657: real time    2.2966
    --------------------------------------------
      LOOP:  cpu time   26.5783: real time   26.7955

 eigenvalue-minimisations  :     0
 total energy-change (2. order) :-0.1907727E+00  (-0.8048169E-01)
 number of electron     216.0000000 magnetization 
 augmentation part       -0.5071919 magnetization 

 Free energy of the ion-electron system (eV)
  ---------------------------------------------------
  alpha Z        PSCENC =        59.93625244
  Ewald energy   TEWEN  =     34916.46917963
  -Hartree energ DENC   =    -41982.20800679
  -exchange      EXHF   =         0.00000000
  -V(xc)+E(xc)   XCENC  =       647.96721005
  PAW double counting   =    148872.98148226  -148732.68706082
  entropy T*S    EENTRO =        -0.00000000
  eigenvalues    EBANDS =     -2682.90570473
  atomic energy  EATOM  =      8369.52358910
  ---------------------------------------------------
  free energy    TOTEN  =      -530.92305886 eV

  energy without entropy =     -530.92305886  energy(sigma->0) =     -530.92305886


--------------------------------------------------------------------------------------------------------




--------------------------------------- Iteration      1(  11)  ---------------------------------------


    POTLOK:  cpu time    1.4489: real time    1.4566
    SETDIJ:  cpu time    0.2353: real time    0.2360
    TRIAL :  cpu time   15.4696: real time   15.5876
    CORREC:  cpu time    7.1158: real time    7.1681
    CHARGE:  cpu time    2.2822: real time    2.2978
    --------------------------------------------
      LOOP:  cpu time   26.6058: real time   26.8050

 eigenvalue-minimisations  :     0
 total energy-change (2. order) :-0.8030919E-01  (-0.3169745E-01)
 number of electron     216.0000000 magnetization 
 augmentation part       -0.5039834 magnetization 

 Free energy of the ion-electron system (eV)
  ---------------------------------------------------
  alpha Z        PSCENC =        59.93625244
  Ewald energy   TEWEN  =     34916.46917963
  -Hartree energ DENC   =    -41976.66169134
  -exchange      EXHF   =         0.00000000
  -V(xc)+E(xc)   XCENC  =       647.83924882
  PAW double counting   =    148753.98302163  -148613.68841118
  entropy T*S    EENTRO =        -0.00000000
  eigenvalues    EBANDS =     -2688.40455716
  atomic energy  EATOM  =      8369.52358910
  ---------------------------------------------------
  free energy    TOTEN  =      -531.00336805 eV

  energy without entropy =     -531.00336805  energy(sigma->0) =     -531.00336805


--------------------------------------------------------------------------------------------------------




--------------------------------------- Iteration      1(  12)  ---------------------------------------


    POTLOK:  cpu time    1.4497: real time    1.4572
    SETDIJ:  cpu time    0.2298: real time    0.2305
    TRIAL :  cpu time   15.4372: real time   15.5805
    CORREC:  cpu time    7.0990: real time    7.1670
    CHARGE:  cpu time    2.2788: real time    2.3002
    --------------------------------------------
      LOOP:  cpu time   26.5839: real time   26.8261

 eigenvalue-minimisations  :     0
 total energy-change (2. order) :-0.3165822E-01  (-0.1019333E-01)
 number of electron     216.0000000 magnetization 
 augmentation part       -0.5040745 magnetization 

 Free energy of the ion-electron system (eV)
  ---------------------------------------------------
  alpha Z        PSCENC =        59.93625244
  Ewald energy   TEWEN  =     34916.46917963
  -Hartree energ DENC   =    -41972.20055810
  -exchange      EXHF   =         0.00000000
  -V(xc)+E(xc)   XCENC  =       647.74193450
  PAW double counting   =    148041.47141754  -147901.20157495
  entropy T*S    EENTRO =        -0.00000000
  eigenvalues    EBANDS =     -2692.77526644
  atomic energy  EATOM  =      8369.52358910
  ---------------------------------------------------
  free energy    TOTEN  =      -531.03502627 eV

  energy without entropy =     -531.03502627  energy(sigma->0) =     -531.03502627


--------------------------------------------------------------------------------------------------------




--------------------------------------- Iteration      1(  13)  ---------------------------------------


    POTLOK:  cpu time    1.4459: real time    1.4539
    SETDIJ:  cpu time    0.2347: real time    0.2355
    TRIAL :  cpu time   15.4723: real time   15.5882
    CORREC:  cpu time    7.1159: real time    7.1645
    CHARGE:  cpu time    2.2836: real time    2.3053
    --------------------------------------------
      LOOP:  cpu time   26.6341: real time   26.8304

 eigenvalue-minimisations  :     0
 total energy-change (2. order) :-0.1019882E-01  (-0.2817046E-02)
 number of electron     216.0000000 magnetization 
 augmentation part       -0.5046999 magnetization 

 Free energy of the ion-electron system (eV)
  ---------------------------------------------------
  alpha Z        PSCENC =        59.93625244
  Ewald energy   TEWEN  =     34916.46917963
  -Hartree energ DENC   =    -41970.57882937
  -exchange      EXHF   =         0.00000000
  -V(xc)+E(xc)   XCENC  =       647.68767293
  PAW double counting   =    147518.42676427  -147378.16893430
  entropy T*S    EENTRO =        -0.00000000
  eigenvalues    EBANDS =     -2694.34091978
  atomic energy  EATOM  =      8369.52358910
  ---------------------------------------------------
  free energy    TOTEN  =      -531.04522508 eV

  energy without entropy =     -531.04522508  energy(sigma->0) =     -531.04522508


--------------------------------------------------------------------------------------------------------




--------------------------------------- Iteration      1(  14)  ---------------------------------------


    POTLOK:  cpu time    1.4459: real time    1.4536
    SETDIJ:  cpu time    0.2358: real time    0.2366
    TRIAL :  cpu time   15.4462: real time   15.5926
    CORREC:  cpu time    7.1164: real time    7.1710
    CHARGE:  cpu time    2.2856: real time    2.3022
    --------------------------------------------
      LOOP:  cpu time   26.5762: real time   26.8114

 eigenvalue-minimisations  :     0
 total energy-change (2. order) :-0.2820434E-02  (-0.7297449E-03)
 number of electron     216.0000000 magnetization 
 augmentation part       -0.5049601 magnetization 

 Free energy of the ion-electron system (eV)
  ---------------------------------------------------
  alpha Z        PSCENC =        59.93625244
  Ewald energy   TEWEN  =     34916.46917963
  -Hartree energ DENC   =    -41970.53439019
  -exchange      EXHF   =         0.00000000
  -V(xc)+E(xc)   XCENC  =       647.68468963
  PAW double counting   =    147284.06576625  -147143.81377631
  entropy T*S    EENTRO =        -0.00000000
  eigenvalues    EBANDS =     -2694.37935608
  atomic energy  EATOM  =      8369.52358910
  ---------------------------------------------------
  free energy    TOTEN  =      -531.04804552 eV

  energy without entropy =     -531.04804552  energy(sigma->0) =     -531.04804552


--------------------------------------------------------------------------------------------------------




--------------------------------------- Iteration      1(  15)  ---------------------------------------


    POTLOK:  cpu time    1.4470: real time    1.4548
    SETDIJ:  cpu time    0.2351: real time    0.2359
    TRIAL :  cpu time   15.4694: real time   15.6063
    CORREC:  cpu time    7.1151: real time    7.1680
    CHARGE:  cpu time    2.2782: real time    2.2961
    --------------------------------------------
      LOOP:  cpu time   26.5889: real time   26.8084

 eigenvalue-minimisations  :     0
 total energy-change (2. order) :-0.7299893E-03  (-0.1908408E-03)
 number of electron     216.0000000 magnetization 
 augmentation part       -0.5050749 magnetization 

 Free energy of the ion-electron system (eV)
  ---------------------------------------------------
  alpha Z        PSCENC =        59.93625244
  Ewald energy   TEWEN  =     34916.46917963
  -Hartree energ DENC   =    -41970.44988168
  -exchange      EXHF   =         0.00000000
  -V(xc)+E(xc)   XCENC  =       647.68605438
  PAW double counting   =    147189.86328302  -147049.61386786
  entropy T*S    EENTRO =        -0.00000000
  eigenvalues    EBANDS =     -2694.46338454
  atomic energy  EATOM  =      8369.52358910
  ---------------------------------------------------
  free energy    TOTEN  =      -531.04877551 eV

  energy without entropy =     -531.04877551  energy(sigma->0) =     -531.04877551


--------------------------------------------------------------------------------------------------------




--------------------------------------- Iteration      1(  16)  ---------------------------------------


    POTLOK:  cpu time    1.4440: real time    1.4520
    SETDIJ:  cpu time    0.2345: real time    0.2353
    TRIAL :  cpu time   15.4862: real time   15.6110
    CORREC:  cpu time    7.0848: real time    7.1670
    CHARGE:  cpu time    2.2803: real time    2.2980
    --------------------------------------------
      LOOP:  cpu time   26.5936: real time   26.8308

 eigenvalue-minimisations  :     0
 total energy-change (2. order) :-0.1916324E-03  (-0.5744001E-04)
 number of electron     216.0000000 magnetization 
 augmentation part       -0.5050878 magnetization 

 Free energy of the ion-electron system (eV)
  ---------------------------------------------------
  alpha Z        PSCENC =        59.93625244
  Ewald energy   TEWEN  =     34916.46917963
  -Hartree energ DENC   =    -41970.35474292
  -exchange      EXHF   =         0.00000000
  -V(xc)+E(xc)   XCENC  =       647.68433427
  PAW double counting   =    147135.88579641  -146995.63681200
  entropy T*S    EENTRO =        -0.00000000
  eigenvalues    EBANDS =     -2694.55656407
  atomic energy  EATOM  =      8369.52358910
  ---------------------------------------------------
  free energy    TOTEN  =      -531.04896714 eV

  energy without entropy =     -531.04896714  energy(sigma->0) =     -531.04896714


--------------------------------------------------------------------------------------------------------




--------------------------------------- Iteration      1(  17)  ---------------------------------------


    POTLOK:  cpu time    1.4441: real time    1.4522
    SETDIJ:  cpu time    0.2382: real time    0.2390
    TRIAL :  cpu time   15.4031: real time   15.5708
    CORREC:  cpu time    7.1026: real time    7.1667
    CHARGE:  cpu time    2.2921: real time    2.3084
    --------------------------------------------
      LOOP:  cpu time   26.5148: real time   26.7757

 eigenvalue-minimisations  :     0
 total energy-change (2. order) :-0.5724881E-04  (-0.2158091E-04)
 number of electron     216.0000000 magnetization 
 augmentation part       -0.5050937 magnetization 

 Free energy of the ion-electron system (eV)
  ---------------------------------------------------
  alpha Z        PSCENC =        59.93625244
  Ewald energy   TEWEN  =     34916.46917963
  -Hartree energ DENC   =    -41970.48826209
  -exchange      EXHF   =         0.00000000
  -V(xc)+E(xc)   XCENC  =       647.69094173
  PAW double counting   =    147098.07681479  -146957.82852079
  entropy T*S    EENTRO =        -0.00000000
  eigenvalues    EBANDS =     -2694.42901921
  atomic energy  EATOM  =      8369.52358910
  ---------------------------------------------------
  free energy    TOTEN  =      -531.04902439 eV

  energy without entropy =     -531.04902439  energy(sigma->0) =     -531.04902439


--------------------------------------------------------------------------------------------------------




--------------------------------------- Iteration      1(  18)  ---------------------------------------


    POTLOK:  cpu time    1.4451: real time    1.4527
    SETDIJ:  cpu time    0.2359: real time    0.2367
    TRIAL :  cpu time   15.4523: real time   15.5782
    CORREC:  cpu time    7.1385: real time    7.1860
    CHARGE:  cpu time    2.2792: real time    2.3006
    --------------------------------------------
      LOOP:  cpu time   26.6008: real time   26.8071

 eigenvalue-minimisations  :     0
 total energy-change (2. order) :-0.2121949E-04  (-0.8342419E-05)
 number of electron     216.0000000 magnetization 
 augmentation part       -0.5051203 magnetization 

 Free energy of the ion-electron system (eV)
  ---------------------------------------------------
  alpha Z        PSCENC =        59.93625244
  Ewald energy   TEWEN  =     34916.46917963
  -Hartree energ DENC   =    -41970.57042930
  -exchange      EXHF   =         0.00000000
  -V(xc)+E(xc)   XCENC  =       647.69422530
  PAW double counting   =    147080.91060393  -146940.66227644
  entropy T*S    EENTRO =        -0.00000000
  eigenvalues    EBANDS =     -2694.35019027
  atomic energy  EATOM  =      8369.52358910
  ---------------------------------------------------
  free energy    TOTEN  =      -531.04904561 eV

  energy without entropy =     -531.04904561  energy(sigma->0) =     -531.04904561


--------------------------------------------------------------------------------------------------------




--------------------------------------- Iteration      1(  19)  ---------------------------------------


    POTLOK:  cpu time    1.4442: real time    1.4520
    SETDIJ:  cpu time    0.2381: real time    0.2388
    TRIAL :  cpu time   15.4674: real time   15.5786
    CORREC:  cpu time    7.1415: real time    7.1910
    CHARGE:  cpu time    2.2843: real time    2.3007
    --------------------------------------------
      LOOP:  cpu time   26.6233: real time   26.8131

 eigenvalue-minimisations  :     0
 total energy-change (2. order) :-0.8147385E-05  (-0.3949131E-05)
 number of electron     216.0000000 magnetization 
 augmentation part       -0.5051352 magnetization 

 Free energy of the ion-electron system (eV)
  ---------------------------------------------------
  alpha Z        PSCENC =        59.93625244
  Ewald energy   TEWEN  =     34916.46917963
  -Hartree energ DENC   =    -41970.57707734
  -exchange      EXHF   =         0.00000000
  -V(xc)+E(xc)   XCENC  =       647.69392941
  PAW double counting   =    147082.38479816  -146942.13597114
  entropy T*S    EENTRO =        -0.00000000
  eigenvalues    EBANDS =     -2694.34375401
  atomic energy  EATOM  =      8369.52358910
  ---------------------------------------------------
  free energy    TOTEN  =      -531.04905376 eV

  energy without entropy =     -531.04905376  energy(sigma->0) =     -531.04905376


--------------------------------------------------------------------------------------------------------




--------------------------------------- Iteration      1(  20)  ---------------------------------------


    POTLOK:  cpu time    1.4501: real time    1.4580
    SETDIJ:  cpu time    0.2290: real time    0.2298
    TRIAL :  cpu time   15.4681: real time   15.5871
    CORREC:  cpu time    7.1203: real time    7.1683
    CHARGE:  cpu time    2.2865: real time    2.3026
    --------------------------------------------
      LOOP:  cpu time   26.6275: real time   26.8216

 eigenvalue-minimisations  :     0
 total energy-change (2. order) :-0.3198715E-05  (-0.7948236E-06)
 number of electron     216.0000000 magnetization 
 augmentation part       -0.5051421 magnetization 

 Free energy of the ion-electron system (eV)
  ---------------------------------------------------
  alpha Z        PSCENC =        59.93625244
  Ewald energy   TEWEN  =     34916.46917963
  -Hartree energ DENC   =    -41970.61357520
  -exchange      EXHF   =         0.00000000
  -V(xc)+E(xc)   XCENC  =       647.69505730
  PAW double counting   =    147091.32472057  -146951.07571944
  entropy T*S    EENTRO =        -0.00000000
  eigenvalues    EBANDS =     -2694.30856137
  atomic energy  EATOM  =      8369.52358910
  ---------------------------------------------------
  free energy    TOTEN  =      -531.04905695 eV

  energy without entropy =     -531.04905695  energy(sigma->0) =     -531.04905695


--------------------------------------------------------------------------------------------------------




--------------------------------------- Iteration      1(  21)  ---------------------------------------


    POTLOK:  cpu time    1.4427: real time    1.4545
    SETDIJ:  cpu time    0.2354: real time    0.2366
    TRIAL :  cpu time   15.4138: real time   15.5843
    CORREC:  cpu time    7.1103: real time    7.1743
    CHARGE:  cpu time    2.2726: real time    2.2960
    --------------------------------------------
      LOOP:  cpu time   26.5131: real time   26.7899

 eigenvalue-minimisations  :     0
 total energy-change (2. order) :-0.7864146E-06  (-0.3880667E-06)
 number of electron     216.0000000 magnetization 
 augmentation part       -0.5051398 magnetization 

 Free energy of the ion-electron system (eV)
  ---------------------------------------------------
  alpha Z        PSCENC =        59.93625244
  Ewald energy   TEWEN  =     34916.46917963
  -Hartree energ DENC   =    -41970.61252885
  -exchange      EXHF   =         0.00000000
  -V(xc)+E(xc)   XCENC  =       647.69469706
  PAW double counting   =    147094.57056890  -146954.32148476
  entropy T*S    EENTRO =        -0.00000000
  eigenvalues    EBANDS =     -2694.30933126
  atomic energy  EATOM  =      8369.52358910
  ---------------------------------------------------
  free energy    TOTEN  =      -531.04905774 eV

  energy without entropy =     -531.04905774  energy(sigma->0) =     -531.04905774


--------------------------------------------------------------------------------------------------------




--------------------------------------- Iteration      1(  22)  ---------------------------------------


    POTLOK:  cpu time    1.4478: real time    1.4553
    SETDIJ:  cpu time    0.2442: real time    0.2450
    TRIAL :  cpu time   15.4388: real time   15.5784
    CORREC:  cpu time    7.1156: real time    7.1631
    CHARGE:  cpu time    2.2868: real time    2.3027
    --------------------------------------------
      LOOP:  cpu time   26.6464: real time   26.8620

 eigenvalue-minimisations  :     0
 total energy-change (2. order) :-0.3589666E-06  (-0.1795795E-06)
 number of electron     216.0000000 magnetization 
 augmentation part       -0.5051339 magnetization 

 Free energy of the ion-electron system (eV)
  ---------------------------------------------------
  alpha Z        PSCENC =        59.93625244
  Ewald energy   TEWEN  =     34916.46917963
  -Hartree energ DENC   =    -41970.60850038
  -exchange      EXHF   =         0.00000000
  -V(xc)+E(xc)   XCENC  =       647.69446141
  PAW double counting   =    147095.16480552  -146954.91574600
  entropy T*S    EENTRO =        -0.00000000
  eigenvalues    EBANDS =     -2694.31309982
  atomic energy  EATOM  =      8369.52358910
  ---------------------------------------------------
  free energy    TOTEN  =      -531.04905810 eV

  energy without entropy =     -531.04905810  energy(sigma->0) =     -531.04905810


--------------------------------------------------------------------------------------------------------




--------------------------------------- Iteration      1(  23)  ---------------------------------------


    POTLOK:  cpu time    1.4478: real time    1.4552
    SETDIJ:  cpu time    0.2324: real time    0.2331
    TRIAL :  cpu time   15.4653: real time   15.5832
    CORREC:  cpu time    7.1159: real time    7.1641
    CHARGE:  cpu time    2.2816: real time    2.2977
    --------------------------------------------
      LOOP:  cpu time   26.6008: real time   26.7927

 eigenvalue-minimisations  :     0
 total energy-change (2. order) :-0.1605367E-06  (-0.6217699E-07)
 number of electron     216.0000000 magnetization 
 augmentation part       -0.5051312 magnetization 

 Free energy of the ion-electron system (eV)
  ---------------------------------------------------
  alpha Z        PSCENC =        59.93625244
  Ewald energy   TEWEN  =     34916.46917963
  -Hartree energ DENC   =    -41970.60601390
  -exchange      EXHF   =         0.00000000
  -V(xc)+E(xc)   XCENC  =       647.69441568
  PAW double counting   =    147095.04371207  -146954.79472260
  entropy T*S    EENTRO =        -0.00000000
  eigenvalues    EBANDS =     -2694.31547068
  atomic energy  EATOM  =      8369.52358910
  ---------------------------------------------------
  free energy    TOTEN  =      -531.04905826 eV

  energy without entropy =     -531.04905826  energy(sigma->0) =     -531.04905826


--------------------------------------------------------------------------------------------------------




--------------------------------------- Iteration      1(  24)  ---------------------------------------


    POTLOK:  cpu time    1.4475: real time    1.4556
    SETDIJ:  cpu time    0.2333: real time    0.2342
    TRIAL :  cpu time   15.4542: real time   15.5750
    CORREC:  cpu time    7.1144: real time    7.1669
    EDDIAG:  cpu time    3.1994: real time    3.2240
    CHARGE:  cpu time    2.2780: real time    2.2947
    --------------------------------------------
      LOOP:  cpu time   29.7513: real time   30.0133

 eigenvalue-minimisations  :     0
 total energy-change (2. order) :-0.3571040E-07  (-0.2207717E-07)
 number of electron     216.0000000 magnetization 
 augmentation part       -0.5051314 magnetization 

 Free energy of the ion-electron system (eV)
  ---------------------------------------------------
  alpha Z        PSCENC =        59.93625244
  Ewald energy   TEWEN  =     34916.46917963
  -Hartree energ DENC   =    -41970.60368513
  -exchange      EXHF   =         0.00000000
  -V(xc)+E(xc)   XCENC  =       647.69436512
  PAW double counting   =    147094.95181204  -146954.70285831
  entropy T*S    EENTRO =        -0.00000000
  eigenvalues    EBANDS =     -2694.31771319
  atomic energy  EATOM  =      8369.52358910
  ---------------------------------------------------
  free energy    TOTEN  =      -531.04905830 eV

  energy without entropy =     -531.04905830  energy(sigma->0) =     -531.04905830


--------------------------------------------------------------------------------------------------------


  average scaling for gradient   0.8643


 average (electrostatic) potential at core
  the test charge radii are     0.5770  0.5955
  (the norm of the test charge is              1.0000)
       1 -87.7373       2 -87.7281       3 -87.7447       4 -87.7502       5 -87.7234
       6 -87.7173       7 -87.7327       8 -87.7040       9 -87.7197      10 -87.7192
      11 -87.7207      12 -87.7291      13 -87.7167      14 -87.7128      15 -87.7182
      16 -87.7188      17 -87.7264      18 -87.7301      19 -87.7324      20 -87.7256
      21 -87.7106      22 -87.7117      23 -87.7426      24 -87.7363      25 -87.7219
      26 -87.7236      27 -87.7167      28 -87.7377      29 -87.7184      30 -87.7183
      31 -87.7463      32 -87.7332      33 -87.7330      34 -87.7250      35 -87.7178
      36 -87.7254      37 -87.7234      38 -87.7315      39 -87.7308      40 -87.7297
      41 -87.7322      42 -87.7363      43 -87.7269      44 -87.7356      45 -87.7205
      46 -87.7177      47 -87.7291      48 -87.7237      49 -87.7315      50 -87.7298
      51 -91.7552      52-123.8663      53-123.8769
 
 
 
 E-fermi :  -4.0670     XC(G=0):  -2.3057     alpha+bet : -2.1113

 Fermi energy:        -4.0670114834

 k-point     1 :       0.0000    0.0000    0.0000
  band No.  band energies     occupation 
      1     -28.8212      2.00000
      2     -27.7932      2.00000
      3     -23.2361      2.00000
      4     -22.2642      2.00000
      5     -22.2550      2.00000
      6     -22.2478      2.00000
      7     -22.2470      2.00000
      8     -22.2437      2.00000
      9     -22.2388      2.00000
     10     -20.3274      2.00000
     11     -20.3233      2.00000
     12     -20.3158      2.00000
     13     -20.3141      2.00000
     14     -20.3126      2.00000
     15     -20.3122      2.00000
     16     -19.3890      2.00000
     17     -19.3854      2.00000
     18     -19.3820      2.00000
     19     -19.3797      2.00000
     20     -19.3784      2.00000
     21     -19.3777      2.00000
     22     -17.1683      2.00000
     23     -17.1659      2.00000
     24     -17.1615      2.00000
     25     -17.1605      2.00000
     26     -17.1560      2.00000
     27     -17.1551      2.00000
     28     -16.0079      2.00000
     29     -16.0061      2.00000
     30     -16.0010      2.00000
     31     -16.0006      2.00000
     32     -15.9985      2.00000
     33     -15.9978      2.00000
     34     -14.6130      2.00000
     35     -14.6117      2.00000
     36     -14.6107      2.00000
     37     -14.6076      2.00000
     38     -14.6074      2.00000
     39     -14.6070      2.00000
     40     -12.8089      2.00000
     41     -12.1551      2.00000
     42     -12.1541      2.00000
     43     -12.1495      2.00000
     44     -12.1489      2.00000
     45     -12.1487      2.00000
     46     -12.1475      2.00000
     47     -11.9376      2.00000
     48     -11.9352      2.00000
     49     -11.9331      2.00000
     50     -11.9326      2.00000
     51     -11.9276      2.00000
     52     -11.9275      2.00000
     53     -11.5373      2.00000
     54     -11.4547      2.00000
     55     -11.2712      2.00000
     56     -10.5293      2.00000
     57     -10.4870      2.00000
     58     -10.4865      2.00000
     59     -10.4852      2.00000
     60     -10.4849      2.00000
     61     -10.4840      2.00000
     62     -10.4831      2.00000
     63      -9.4230      2.00000
     64      -9.4222      2.00000
     65      -9.4196      2.00000
     66      -9.4159      2.00000
     67      -9.4142      2.00000
     68      -9.3045      2.00000
     69      -9.1931      2.00000
     70      -9.1893      2.00000
     71      -9.1871      2.00000
     72      -9.1869      2.00000
     73      -9.1850      2.00000
     74      -9.1837      2.00000
     75      -9.1832      2.00000
     76      -9.1818      2.00000
     77      -9.1809      2.00000
     78      -9.1806      2.00000
     79      -9.1796      2.00000
     80      -9.1781      2.00000
     81      -7.7983      2.00000
     82      -7.6903      2.00000
     83      -7.4813      2.00000
     84      -7.4807      2.00000
     85      -7.4798      2.00000
     86      -7.4754      2.00000
     87      -7.4733      2.00000
     88      -7.4729      2.00000
     89      -7.1899      2.00000
     90      -7.1787      2.00000
     91      -7.1737      2.00000
     92      -7.1631      2.00000
     93      -7.1599      2.00000
     94      -7.0453      2.00000
     95      -6.2456      2.00000
     96      -6.2423      2.00000
     97      -6.2313      2.00000
     98      -6.2305      2.00000
     99      -6.2209      2.00000
    100      -6.1682      2.00000
    101      -5.9624      2.00000
    102      -5.9598      2.00000
    103      -4.1539      2.00000
    104      -4.1466      2.00000
    105      -4.1392      2.00000
    106      -4.1350      2.00000
    107      -4.1322      2.00000
    108      -4.1304      2.00000
    109      -1.1896      0.00000
    110      -1.1835      0.00000
    111      -1.1648      0.00000
    112      -1.1608      0.00000
    113      -1.1589      0.00000
    114      -1.1523      0.00000
    115       0.7740      0.00000
    116       0.7920      0.00000
    117       0.8051      0.00000
    118       0.8162      0.00000
    119       0.8202      0.00000
    120       0.8252      0.00000
    121       0.9378      0.00000
    122       1.6025      0.00000
    123       1.6206      0.00000
    124       1.6655      0.00000
    125       1.9550      0.00000
    126       2.0695      0.00000
    127       2.2975      0.00000
    128       2.3336      0.00000
    129       2.3357      0.00000
    130       2.3429      0.00000
    131       2.4446      0.00000
    132       2.6761      0.00000
    133       2.6838      0.00000
    134       2.6969      0.00000
    135       2.6984      0.00000
    136       2.7057      0.00000
    137       2.7313      0.00000
    138       2.8750      0.00000
    139       2.9612      0.00000
    140       3.0382      0.00000
    141       3.1098      0.00000
    142       3.1178      0.00000
    143       3.1197      0.00000
    144       3.1560      0.00000
    145       3.2728      0.00000
    146       3.3209      0.00000
    147       3.3385      0.00000
    148       3.3592      0.00000
    149       3.4538      0.00000
    150       3.4878      0.00000
    151       3.5439      0.00000
    152       4.5178      0.00000
    153       4.7052      0.00000
    154       4.7339      0.00000
    155       4.8801      0.00000
    156       5.1280      0.00000
    157       5.2803      0.00000
    158       5.2914      0.00000
    159       5.2959      0.00000
    160       5.2994      0.00000
    161       5.3036      0.00000
    162       5.3084      0.00000
    163       5.3392      0.00000
    164       5.4086      0.00000
    165       5.4774      0.00000
    166       5.6161      0.00000
    167       5.6491      0.00000
    168       5.7436      0.00000


--------------------------------------------------------------------------------------------------------


 soft charge-density along one line, spin component           1
         0         1         2         3         4         5         6         7         8         9
 total charge-density along one line
 
 pseudopotential strength for first ion, spin component:           1
 12.630  21.251  -0.000   0.000   0.000  -0.000   0.000   0.000
 21.251  35.756  -0.000   0.000   0.000  -0.000   0.000   0.000
 -0.000  -0.000  -3.234   0.000   0.000  -5.794   0.000   0.000
  0.000   0.000   0.000  -3.238   0.000   0.000  -5.801   0.000
  0.000   0.000   0.000   0.000  -3.234   0.000   0.000  -5.794
 -0.000  -0.000  -5.794   0.000   0.000 -10.358   0.000   0.000
  0.000   0.000   0.000  -5.801   0.000   0.000 -10.368   0.000
  0.000   0.000   0.000   0.000  -5.794   0.000   0.000 -10.358
 total augmentation occupancy for first ion, spin component:           1
  9.642  -3.598  -0.000  -0.002  -0.000   0.000   0.001  -0.000
 -3.598   1.373  -0.000   0.001   0.000   0.000  -0.000  -0.000
 -0.000  -0.000   8.197  -0.009   0.001  -2.895   0.004  -0.000
 -0.002   0.001  -0.009   3.781  -0.000   0.004  -1.106  -0.000
 -0.000   0.000   0.001  -0.000   8.196  -0.000  -0.000  -2.895
  0.000   0.000  -2.895   0.004  -0.000   1.036  -0.001   0.000
  0.001  -0.000   0.004  -1.106  -0.000  -0.001   0.329   0.000
 -0.000  -0.000  -0.000  -0.000  -2.895   0.000   0.000   1.035


------------------------ aborting loop because EDIFF is reached ----------------------------------------


    FORLOC:  cpu time    0.1058: real time    0.1066
    FORNL :  cpu time    2.9064: real time    2.9320
    FORCOR:  cpu time    1.5018: real time    1.5097
    OFIELD:  cpu time    0.0025: real time    0.0025

 VOLUME and BASIS-vectors are now :
 -----------------------------------------------------------------------------
  energy-cutoff  :     1000.00
  volume of cell :     2631.08
      direct lattice vectors                 reciprocal lattice vectors
    12.325000000  0.000000000  0.000000000     0.081135903  0.046843835  0.000000000
    -6.162500000 10.673763102  0.000000000     0.000000000  0.093687670  0.000000000
     0.000000000  0.000000000 20.000000000     0.000000000  0.000000000  0.050000000

  length of vectors
    12.325000000 12.325000000 20.000000000     0.093687670  0.093687670  0.050000000


 FORCES acting on ions:
    Electron-Ion                     Ewald-Force                    Non-Local-Force
 -----------------------------------------------------------------------------------------------
   0.130E+02 0.114E+02 0.224E+02   -.130E+02 -.114E+02 -.224E+02   0.530E-02 -.280E-02 0.134E-01
   0.221E+02 0.110E+02 0.311E+02   -.221E+02 -.110E+02 -.310E+02   0.175E-01 -.178E-02 -.874E-02
   0.114E+02 0.286E+02 0.404E+02   -.114E+02 -.287E+02 -.405E+02   0.920E-02 0.631E-01 0.494E-01
   0.192E+02 0.283E+02 0.717E+02   -.193E+02 -.283E+02 -.719E+02   0.929E-01 0.516E-01 0.118E+00
   0.143E+02 0.338E+01 0.224E+02   -.143E+02 -.337E+01 -.224E+02   -.105E-01 -.692E-02 -.514E-02
   0.150E+02 -.250E+01 0.231E+02   -.150E+02 0.251E+01 -.230E+02   -.347E-01 0.383E-02 -.137E-01
   0.319E+02 0.135E+02 0.597E+02   -.320E+02 -.134E+02 -.597E+02   0.610E-01 -.786E-01 -.396E-01
   0.321E+02 -.106E+02 0.649E+02   -.320E+02 0.106E+02 -.648E+02   -.202E-01 -.213E-01 -.223E+00
   -.124E+02 0.269E+02 0.423E+02   0.124E+02 -.268E+02 -.423E+02   -.818E-02 -.475E-02 -.570E-01
   -.241E+02 0.208E+02 0.707E+02   0.242E+02 -.209E+02 -.706E+02   -.581E-01 0.408E-01 -.227E+00
   0.344E+01 -.299E+01 0.172E+02   -.342E+01 0.297E+01 -.172E+02   -.105E-01 0.594E-02 -.444E-02
   0.269E+01 -.217E+01 0.157E+02   -.270E+01 0.218E+01 -.157E+02   -.100E-01 -.296E-02 0.367E-02
   0.119E+02 -.302E+02 0.762E+02   -.121E+02 0.302E+02 -.761E+02   0.120E+00 0.155E-01 -.249E+00
   0.518E+01 -.292E+02 0.413E+02   -.522E+01 0.291E+02 -.413E+02   0.316E-01 -.372E-02 -.472E-01
   -.128E+02 0.805E+01 0.220E+02   0.127E+02 -.805E+01 -.220E+02   0.197E-01 -.865E-02 -.639E-02
   -.194E+02 0.538E+01 0.268E+02   0.194E+02 -.538E+01 -.268E+02   0.238E-02 0.103E-01 -.306E-01
   -.183E+01 -.741E+00 0.150E+02   0.184E+01 0.752E+00 -.150E+02   0.338E-02 -.217E-01 0.261E-02
   0.103E+01 0.682E+01 0.163E+02   -.104E+01 -.681E+01 -.163E+02   -.864E-03 -.955E-02 0.919E-02
   -.404E+01 -.230E+02 0.293E+02   0.402E+01 0.230E+02 -.293E+02   0.312E-01 -.968E-02 0.168E-01
   -.162E+01 -.106E+02 0.184E+02   0.163E+01 0.106E+02 -.184E+02   -.122E-01 -.145E-01 0.401E-03
   0.234E+02 -.101E+02 0.344E+02   -.233E+02 0.101E+02 -.343E+02   -.136E-01 0.453E-02 -.569E-01
   0.134E+02 -.116E+02 0.252E+02   -.134E+02 0.116E+02 -.252E+02   -.159E-01 0.270E-01 -.115E-01
   -.589E+01 0.143E+02 0.981E+02   0.602E+01 -.144E+02 -.983E+02   -.121E+00 0.101E+00 -.464E-01
   -.117E+02 -.228E+02 0.908E+02   0.116E+02 0.229E+02 -.909E+02   0.949E-01 -.942E-01 -.671E-02
   0.596E+01 -.267E+01 0.174E+02   -.593E+01 0.267E+01 -.173E+02   -.103E-01 -.419E-02 -.105E-01
   0.105E+01 0.537E+01 0.176E+02   -.105E+01 -.537E+01 -.176E+02   0.151E-02 -.232E-02 0.755E-03
   -.313E+02 0.334E+01 0.481E+02   0.313E+02 -.341E+01 -.480E+02   0.914E-02 0.421E-01 -.678E-01
   -.279E+02 -.122E+02 0.417E+02   0.280E+02 0.122E+02 -.417E+02   -.475E-01 0.443E-01 0.254E-01
   0.816E+01 -.168E+02 0.267E+02   -.817E+01 0.168E+02 -.266E+02   0.789E-02 0.167E-01 -.238E-01
   0.757E+00 -.598E+01 0.188E+02   -.775E+00 0.597E+01 -.187E+02   0.535E-02 0.106E-01 -.519E-02
   -.234E+02 -.254E+02 0.540E+02   0.234E+02 0.255E+02 -.541E+02   -.623E-01 -.458E-01 0.101E+00
   -.125E+02 -.227E+02 0.319E+02   0.125E+02 0.227E+02 -.319E+02   -.950E-02 -.467E-01 0.275E-01
   0.689E+00 0.281E+01 0.156E+02   -.679E+00 -.281E+01 -.156E+02   -.637E-02 -.540E-02 0.581E-02
   0.198E+01 0.286E+01 0.171E+02   -.198E+01 -.285E+01 -.171E+02   -.119E-01 -.122E-02 -.617E-02
   -.884E+01 0.104E+01 0.193E+02   0.883E+01 -.105E+01 -.193E+02   0.575E-02 0.794E-02 0.123E-02
   -.754E+01 -.298E+01 0.186E+02   0.754E+01 0.298E+01 -.186E+02   -.125E-01 0.950E-02 -.576E-02
   -.156E+02 -.814E+01 0.231E+02   0.156E+02 0.814E+01 -.231E+02   -.198E-01 -.683E-02 0.334E-02
   -.875E+01 -.712E+01 0.182E+02   0.876E+01 0.713E+01 -.182E+02   -.114E-01 -.122E-01 0.111E-01
   -.828E+01 -.108E+02 0.199E+02   0.829E+01 0.109E+02 -.199E+02   -.174E-01 -.296E-01 0.734E-02
   -.120E+01 -.252E+01 0.162E+02   0.120E+01 0.254E+01 -.162E+02   -.803E-02 -.158E-01 0.850E-02
   0.310E+01 0.737E+01 0.172E+02   -.310E+01 -.738E+01 -.172E+02   -.200E-02 0.147E-02 0.705E-02
   0.106E+02 0.165E+02 0.242E+02   -.106E+02 -.165E+02 -.243E+02   0.149E-01 0.188E-01 0.122E-01
   0.821E+00 0.134E+02 0.197E+02   -.821E+00 -.134E+02 -.197E+02   0.756E-02 0.345E-02 -.190E-02
   0.290E+00 0.264E+02 0.334E+02   -.264E+00 -.264E+02 -.335E+02   -.311E-01 0.118E-01 0.192E-01
   -.254E+01 0.508E+01 0.188E+02   0.254E+01 -.507E+01 -.188E+02   0.109E-01 -.115E-01 -.795E-02
   -.110E+02 0.141E+02 0.253E+02   0.110E+02 -.141E+02 -.253E+02   0.627E-02 -.574E-02 -.217E-01
   -.175E+01 -.501E+01 0.169E+02   0.175E+01 0.501E+01 -.169E+02   0.521E-02 -.151E-02 0.151E-02
   -.467E+01 0.193E+01 0.161E+02   0.466E+01 -.192E+01 -.161E+02   0.877E-03 -.336E-02 -.809E-02
   0.356E+00 -.310E+01 0.158E+02   -.344E+00 0.310E+01 -.158E+02   -.687E-02 -.111E-01 0.636E-02
   0.491E+01 0.361E+01 0.161E+02   -.490E+01 -.361E+01 -.161E+02   -.131E-01 0.752E-02 0.407E-02
   0.305E+00 -.185E+00 -.395E+03   -.279E+00 0.160E+00 0.395E+03   -.427E-01 0.281E-01 -.761E-01
   -.228E+03 0.155E+03 -.605E+03   0.279E+03 -.190E+03 0.608E+03   -.524E+02 0.357E+02 -.277E+01
   0.228E+03 -.155E+03 -.584E+03   -.279E+03 0.190E+03 0.580E+03   0.524E+02 -.358E+02 0.389E+01
 -----------------------------------------------------------------------------------------------
   0.537E-01 0.850E-02 -.287E+00   0.000E+00 0.568E-13 -.227E-12   -.792E-01 0.175E-02 0.303E+00
 
 
 POSITION                                       TOTAL-FORCE (eV/Angst)
 -----------------------------------------------------------------------------------
     11.98348      0.00342      0.01417        -0.009172      0.005708     -0.003749
     -0.34154      1.42665      0.01100        -0.003727      0.025524     -0.001021
      2.12355      0.00315      0.01249         0.017041     -0.012468      0.006058
      2.12326      1.42653      0.00641         0.008036      0.026692     -0.016419
     10.75099      2.13819      0.01213        -0.008766      0.019310      0.002007
     -1.57382      3.56123      0.01110        -0.024139      0.016838      0.001479
      0.89078      2.13854      0.00548        -0.018944      0.041443     -0.022837
      0.89099      3.56147      0.00181        -0.013912      0.034517     -0.074290
      4.58864      0.00346      0.01135         0.033874      0.032901     -0.004645
      4.58894      1.42623      0.00646         0.050315     -0.005881     -0.103432
      9.51854      4.27281      0.01369         0.019174     -0.008912      0.001036
     -2.80632      5.69591      0.01434        -0.013392     -0.012973      0.001584
      2.12300      4.27302      0.00000        -0.025336      0.065204     -0.132021
      2.12335      5.69594      0.00581        -0.002171     -0.047807     -0.001473
      7.05344      0.00333      0.01399         0.002951     -0.011414      0.003125
      7.05353      1.42635      0.01368        -0.006923      0.014609     -0.000388
      8.28610      6.40752      0.01601         0.021440     -0.025823     -0.000614
     -4.03885      7.83070      0.01636         0.003500     -0.013072     -0.001546
      3.35586      6.40753      0.01007        -0.009767     -0.006847      0.003088
      3.35599      7.83072      0.01320        -0.017506     -0.012625      0.000350
     -0.34146      4.27290      0.00723         0.030679      0.003630     -0.000548
     -0.34138      5.69591      0.00946        -0.010176      0.004301      0.007457
      3.35624      2.13791      0.00222         0.015691      0.006680     -0.187800
      3.35573      3.56155      0.00139         0.019699      0.030209     -0.121636
     -1.57395      6.40758      0.01311         0.035713     -0.012910     -0.000921
     -1.57385      7.83068      0.01438         0.010288     -0.002800      0.000347
      5.82093      2.13784      0.01033        -0.015740     -0.021571     -0.009153
      5.82114      3.56097      0.01156         0.010251     -0.006490      0.006897
      0.89092      6.40755      0.00907        -0.000840     -0.000776      0.003289
      0.89106      7.83068      0.01235        -0.012363      0.001123      0.002854
      4.58871      4.27293      0.00850        -0.006807     -0.006401      0.009979
      4.58852      5.69606      0.01149        -0.000610     -0.003489      0.002448
      9.51845      0.00337      0.01490        -0.014040     -0.009709     -0.000051
      9.51855      1.42644      0.01438        -0.030131      0.029538     -0.000278
      8.28593      2.13803      0.01453        -0.002199     -0.004544      0.003024
      8.28613      3.56115      0.01464        -0.012532     -0.003596     -0.000598
      7.05356      4.27269      0.01457         0.001848     -0.009117      0.002763
      7.05362      5.69588      0.01553        -0.002300     -0.029636     -0.000692
      5.82112      6.40755      0.01489        -0.014208     -0.021334     -0.001650
      5.82102      7.83073      0.01579        -0.011927     -0.015854     -0.001749
      7.05363      8.54227      0.01631         0.004068     -0.015453     -0.001269
     -5.27149      9.96549      0.01495         0.000186     -0.000246     -0.005682
     -2.80638      8.54234      0.01558         0.028057     -0.012088     -0.001211
     -2.80627      9.96553      0.01362         0.013845      0.001928      0.003328
     -0.34149      8.54239      0.01378         0.025281     -0.011129      0.000234
     -0.34138      9.96550      0.01354         0.011109      0.014326      0.002804
      2.12343      8.54232      0.01336        -0.010834     -0.012057      0.000962
      2.12354      9.96544      0.01469        -0.028619      0.013022     -0.001772
      4.58846      8.54235      0.01505        -0.013214     -0.021971      0.000586
      4.58853      9.96550      0.01517        -0.024145      0.011165     -0.000398
      3.04930      2.68154      2.80616        -0.031488      0.011410      0.094303
      4.02070      2.02068      2.87058        -1.614791      1.104463      0.134086
      2.07767      3.34267      2.74670         1.647671     -1.135550      0.403753
 -----------------------------------------------------------------------------------
    total drift:                               -0.025482      0.010255      0.015729


--------------------------------------------------------------------------------------------------------



  FREE ENERGIE OF THE ION-ELECTRON SYSTEM (eV)
  ---------------------------------------------------
  free  energy   TOTEN  =      -531.04905830 eV

  energy  without entropy=     -531.04905830  energy(sigma->0) =     -531.04905830
 


--------------------------------------------------------------------------------------------------------


    POTLOK:  cpu time    1.7015: real time    1.7101


--------------------------------------------------------------------------------------------------------


 writing wavefunctions
     LOOP+:  cpu time  676.0650: real time  682.2098
    4ORBIT:  cpu time    0.0000: real time    0.0000

 total amount of memory used by VASP MPI-rank0   556209. kBytes
=======================================================================

   base      :      30000. kBytes
   nonl-proj :     184518. kBytes
   fftplans  :      31725. kBytes
   grid      :     282516. kBytes
   one-center:        162. kBytes
   wavefun   :      27288. kBytes
 
  
  
 General timing and accounting informations for this job:
 ========================================================
  
                  Total CPU time used (sec):      716.155
                            User time (sec):      693.071
                          System time (sec):       23.084
                         Elapsed time (sec):      723.658
  
                   Maximum memory used (kb):     1030820.
                   Average memory used (kb):          N/A
  
                          Minor page faults:       189153
                          Major page faults:          130
                 Voluntary context switches:         3701
