 vasp.6.2.1 16May21 (build Nov 06 2021 14:46:37) complex                        
  
 executed on             LinuxIFC date 2025.03.03  21:48:04
 running on  112 total cores
 distrk:  each k-point on   56 cores,    2 groups
 distr:  one band on NCORE=   1 cores,   56 groups


--------------------------------------------------------------------------------------------------------


 INCAR:
   ALGO = Conjugate
   KPAR = 2
   NCORE = 32
   ISMEAR = 0
   SIGMA = 0.01
   PREC = Accurate
   EDIFF = 1E-7
   ENCUT = 1000
   ISIF = 0
   METAGGA = SCAN
   LASPH = .TRUE.
   SYMPREC = 1E-7

 POTCAR:    PAW_PBE C_h 06Feb2004                 
 POTCAR:    PAW_PBE O_h 06Feb2004                 
 -----------------------------------------------------------------------------
|                                                                             |
|           W    W    AA    RRRRR   N    N  II  N    N   GGGG   !!!           |
|           W    W   A  A   R    R  NN   N  II  NN   N  G    G  !!!           |
|           W    W  A    A  R    R  N N  N  II  N N  N  G       !!!           |
|           W WW W  AAAAAA  RRRRR   N  N N  II  N  N N  G  GGG   !            |
|           WW  WW  A    A  R   R   N   NN  II  N   NN  G    G                |
|           W    W  A    A  R    R  N    N  II  N    N   GGGG   !!!           |
|                                                                             |
|     The value NCORE = 32 specified in the INCAR file was overwritten,       |
|     because it was not compatible with the 56 processes available:          |
|     NCORE = 1                                                               |
|     was used instead, please check that this makes sense for your           |
|     machine.                                                                |
|                                                                             |
 -----------------------------------------------------------------------------

 -----------------------------------------------------------------------------
|                                                                             |
|           W    W    AA    RRRRR   N    N  II  N    N   GGGG   !!!           |
|           W    W   A  A   R    R  NN   N  II  NN   N  G    G  !!!           |
|           W    W  A    A  R    R  N N  N  II  N N  N  G       !!!           |
|           W WW W  AAAAAA  RRRRR   N  N N  II  N  N N  G  GGG   !            |
|           WW  WW  A    A  R   R   N   NN  II  N   NN  G    G                |
|           W    W  A    A  R    R  N    N  II  N    N   GGGG   !!!           |
|                                                                             |
|     For optimal performance we recommend to set                             |
|       NCORE = 2 up to number-of-cores-per-socket                            |
|     NCORE specifies how many cores store one orbital (NPAR=cpu/NCORE).      |
|     This setting can greatly improve the performance of VASP for DFT.       |
|     The default, NCORE=1 might be grossly inefficient on modern             |
|     multi-core architectures or massively parallel machines. Do your        |
|     own testing! More info at https://www.vasp.at/wiki/index.php/NCORE      |
|     Unfortunately you need to use the default for GW and RPA                |
|     calculations (for HF NCORE is supported but not extensively tested      |
|     yet).                                                                   |
|                                                                             |
 -----------------------------------------------------------------------------

 POTCAR:    PAW_PBE C_h 06Feb2004                 
   VRHFIN =C: s2p2                                                                                  
   LEXCH  = PE                                                                                      
   EATOM  =   147.1560 eV,   10.8157 Ry                                                             
                                                                                                    
   TITEL  = PAW_PBE C_h 06Feb2004                                                                   
   LULTRA =        F    use ultrasoft PP ?                                                          
   IUNSCR =        1    unscreen: 0-lin 1-nonlin 2-no                                               
   RPACOR =    0.800    partial core radius                                                         
   POMASS =   12.011; ZVAL   =    4.000    mass and valenz                                          
   RCORE  =    1.100    outmost cutoff radius                                                       
   RWIGS  =    1.630; RWIGS  =    0.863    wigner-seitz radius (au A)                               
   ENMAX  =  700.000; ENMIN  =  500.000 eV                                                          
   ICORE  =        2    local potential                                                             
   LCOR   =        T    correct aug charges                                                         
   LPAW   =        T    paw PP                                                                      
   EAUG   =  946.768                                                                                
   DEXC   =    0.000                                                                                
   RMAX   =    1.128    core radius for proj-oper                                                   
   RAUG   =    1.300    factor for augmentation sphere                                              
   RDEP   =    1.162    radius for radial grids                                                     
   RDEPT  =    1.088    core radius for aug-charge                                                  
                                                                                                    
   Atomic configuration                                                                             
    4 entries                                                                                       
     n  l   j            E        occ.                                                              
     1  0  0.50      -273.3789   2.0000                                                             
     2  0  0.50       -13.7508   2.0000                                                             
     2  1  0.50        -5.2854   2.0000                                                             
     3  2  1.50        -5.4423   0.0000                                                             
   Description                                                                                      
     l       E           TYP  RCUT    TYP  RCUT                                                     
     0    -13.7508458     23  1.100                                                                 
     0     -8.2022199     23  1.100                                                                 
     1     -5.2854383     23  1.100                                                                 
     1      1.1560700     23  1.100                                                                 
     2     -5.4423304      7  1.100                                                                 
  local pseudopotential read in
  partial core-charges read in
  partial kinetic energy density read in
  atomic valenz-charges read in
  non local Contribution for L=           0  read in
    real space projection operators read in
  non local Contribution for L=           0  read in
    real space projection operators read in
  non local Contribution for L=           1  read in
    real space projection operators read in
  non local Contribution for L=           1  read in
    real space projection operators read in
    PAW grid and wavefunctions read in
 
   number of l-projection  operators is LMAX  =           4
   number of lm-projection operators is LMMAX =           8
 
 POTCAR:    PAW_PBE O_h 06Feb2004                 
   VRHFIN =O: s2p4                                                                                  
   LEXCH  = PE                                                                                      
   EATOM  =   432.3788 eV,   31.7789 Ry                                                             
                                                                                                    
   TITEL  = PAW_PBE O_h 06Feb2004                                                                   
   LULTRA =        F    use ultrasoft PP ?                                                          
   IUNSCR =        1    unscreen: 0-lin 1-nonlin 2-no                                               
   RPACOR =    0.800    partial core radius                                                         
   POMASS =   16.000; ZVAL   =    6.000    mass and valenz                                          
   RCORE  =    1.100    outmost cutoff radius                                                       
   RWIGS  =    1.400; RWIGS  =    0.741    wigner-seitz radius (au A)                               
   ENMAX  =  700.000; ENMIN  =  500.000 eV                                                          
   ICORE  =        2    local potential                                                             
   LCOR   =        T    correct aug charges                                                         
   LPAW   =        T    paw PP                                                                      
   EAUG   =  888.804                                                                                
   DEXC   =    0.000                                                                                
   RMAX   =    1.128    core radius for proj-oper                                                   
   RAUG   =    1.300    factor for augmentation sphere                                              
   RDEP   =    1.125    radius for radial grids                                                     
   RDEPT  =    1.088    core radius for aug-charge                                                  
                                                                                                    
   Atomic configuration                                                                             
    4 entries                                                                                       
     n  l   j            E        occ.                                                              
     1  0  0.50      -514.6923   2.0000                                                             
     2  0  0.50       -23.9615   2.0000                                                             
     2  1  0.50        -9.0305   4.0000                                                             
     3  2  1.50        -9.5241   0.0000                                                             
   Description                                                                                      
     l       E           TYP  RCUT    TYP  RCUT                                                     
     0    -23.9615319     23  1.100                                                                 
     0    -25.3221145     23  1.100                                                                 
     1     -9.0304911     23  1.100                                                                 
     1     -5.4802209     23  1.100                                                                 
     2     -9.5240782      7  1.100                                                                 
  local pseudopotential read in
  partial core-charges read in
  partial kinetic energy density read in
  atomic valenz-charges read in
  non local Contribution for L=           0  read in
    real space projection operators read in
  non local Contribution for L=           0  read in
    real space projection operators read in
  non local Contribution for L=           1  read in
    real space projection operators read in
  non local Contribution for L=           1  read in
    real space projection operators read in
    PAW grid and wavefunctions read in
 
   number of l-projection  operators is LMAX  =           4
   number of lm-projection operators is LMMAX =           8
 
 -----------------------------------------------------------------------------
|                                                                             |
|               ----> ADVICE to this user running VASP <----                  |
|                                                                             |
|     You have a (more or less) 'large supercell' and for larger cells it     |
|     might be more efficient to use real-space projection operators.         |
|     Therefore, try LREAL= Auto in the INCAR file.                           |
|     Mind: For very accurate calculation, you might also keep the            |
|     reciprocal projection scheme (i.e. LREAL=.FALSE.).                      |
|                                                                             |
 -----------------------------------------------------------------------------

  PAW_PBE C_h 06Feb2004                 :
 energy of atom  1       EATOM= -147.1560
 kinetic energy error for atom=    0.0031 (will be added to EATOM!!)
  PAW_PBE O_h 06Feb2004                 :
 energy of atom  2       EATOM= -432.3788
 kinetic energy error for atom=    0.0171 (will be added to EATOM!!)
 
 
 POSCAR:  C  O
  positions in cartesian coordinates
  No initial velocities read in

 METAGGA = SCAN     LMAXTAU =  6    LMIXTAU =  F

 exchange correlation table for  LEXCH =        8
   RHO(1)=    0.500       N(1)  =     2000
   RHO(2)=  100.500       N(2)  =     4000
 


--------------------------------------------------------------------------------------------------------


 ion  position               nearest neighbor table
   1  0.972  0.000  0.001-  50 1.42   2 1.42  42 1.42
   2  0.039  0.134  0.001-   5 1.42   7 1.42   1 1.42
   3  0.172  0.000  0.001-  42 1.42  44 1.42   4 1.42
   4  0.239  0.134  0.000-   7 1.42   3 1.42  23 1.42
   5  0.972  0.200  0.001-   6 1.42   2 1.42  34 1.42
   6  0.039  0.334  0.001-   5 1.42  21 1.42  11 1.42
   7  0.172  0.200  0.000-   8 1.42   2 1.42   4 1.42
   8  0.239  0.334  0.000-  13 1.42   7 1.42  21 1.42
   9  0.372  0.000  0.001-  10 1.42  44 1.42  46 1.42
  10  0.439  0.134  0.000-  27 1.42   9 1.42  23 1.42
  11  0.972  0.400  0.001-  12 1.42  36 1.42   6 1.42
  12  0.039  0.534  0.001-  25 1.42  11 1.42  17 1.42
  13  0.372  0.400  0.000-   8 1.42  14 1.42  24 1.42
  14  0.439  0.534  0.000-  13 1.42  29 1.42  19 1.42
  15  0.572  0.000  0.001-  46 1.42  16 1.42  48 1.42
  16  0.639  0.134  0.001-  15 1.42  35 1.42  27 1.42
  17  0.972  0.600  0.001-  38 1.42  18 1.42  12 1.42
  18  0.039  0.734  0.001-  43 1.42  41 1.42  17 1.42
  19  0.572  0.600  0.001-  14 1.42  20 1.42  32 1.42
  20  0.639  0.734  0.001-  49 1.42  19 1.42  47 1.42
  21  0.172  0.400  0.000-  22 1.42   8 1.42   6 1.42
  22  0.239  0.534  0.000-  21 1.42  29 1.42  25 1.42
  23  0.372  0.200  0.000-  10 1.42   4 1.42  24 1.42
  24  0.439  0.334  0.000-  13 1.42  31 1.42  23 1.42
  25  0.172  0.600  0.001-  26 1.42  12 1.42  22 1.42
  26  0.239  0.734  0.001-  25 1.42  45 1.42  43 1.42
  27  0.572  0.200  0.001-  10 1.42  28 1.42  16 1.42
  28  0.639  0.334  0.001-  27 1.42  37 1.42  31 1.42
  29  0.372  0.600  0.000-  22 1.42  14 1.42  30 1.42
  30  0.439  0.734  0.001-  47 1.42  29 1.42  45 1.42
  31  0.572  0.400  0.000-  32 1.42  28 1.42  24 1.42
  32  0.639  0.534  0.001-  31 1.42  39 1.42  19 1.42
  33  0.772  0.000  0.001-  34 1.42  48 1.42  50 1.42
  34  0.839  0.134  0.001-  33 1.42   5 1.42  35 1.42
  35  0.772  0.200  0.001-  36 1.42  16 1.42  34 1.42
  36  0.839  0.334  0.001-  35 1.42  11 1.42  37 1.42
  37  0.772  0.400  0.001-  28 1.42  38 1.42  36 1.42
  38  0.839  0.534  0.001-  17 1.42  37 1.42  39 1.42
  39  0.772  0.600  0.001-  40 1.42  38 1.42  32 1.42
  40  0.839  0.734  0.001-  39 1.42  49 1.42  41 1.42
  41  0.972  0.800  0.001-  18 1.42  42 1.42  40 1.42
  42  0.039  0.934  0.001-   3 1.42  41 1.42   1 1.42
  43  0.172  0.800  0.001-  18 1.42  44 1.42  26 1.42
  44  0.239  0.934  0.001-   9 1.42  43 1.42   3 1.42
  45  0.372  0.800  0.001-  26 1.42  46 1.42  30 1.42
  46  0.439  0.934  0.001-  15 1.42  45 1.42   9 1.42
  47  0.572  0.800  0.001-  30 1.42  48 1.42  20 1.42
  48  0.639  0.934  0.001-  47 1.42  33 1.42  15 1.42
  49  0.772  0.800  0.001-  50 1.42  20 1.42  40 1.42
  50  0.839  0.934  0.001-  49 1.42   1 1.42  33 1.42
  51  0.373  0.251  0.445-  52 1.18  53 1.18
  52  0.421  0.189  0.449-  51 1.18
  53  0.325  0.313  0.442-  51 1.18
 
  LATTYP: Found a hexagonal cell.
 ALAT       =    12.3250000000
 C/A-ratio  =     1.6227180527
  
  Lattice vectors:
  
 A1 = (  12.3250000000,   0.0000000000,   0.0000000000)
 A2 = (  -6.1625000000,  10.6737631016,   0.0000000000)
 A3 = (   0.0000000000,   0.0000000000,  20.0000000000)


Analysis of symmetry for initial positions (statically):
=====================================================================
 Subroutine PRICEL returns:
 Original cell was already a primitive cell.
 

 Routine SETGRP: Setting up the symmetry group for a 
 hexagonal supercell.


 Subroutine GETGRP returns: Found  1 space group operations
 (whereof  1 operations were pure point group operations)
 out of a pool of 24 trial point group operations.


The static configuration has the point symmetry C_1 .


Analysis of symmetry for dynamics (positions and initial velocities):
=====================================================================
 Subroutine PRICEL returns:
 Original cell was already a primitive cell.
 

 Routine SETGRP: Setting up the symmetry group for a 
 hexagonal supercell.


 Subroutine GETGRP returns: Found  1 space group operations
 (whereof  1 operations were pure point group operations)
 out of a pool of 24 trial point group operations.


The dynamic configuration has the point symmetry C_1 .


 Subroutine INISYM returns: Found  1 space group operations
 (whereof  1 operations are pure point group operations),
 and found     1 'primitive' translations


----------------------------------------------------------------------------------------

                                     Primitive cell                                     

  volume of cell :    2631.0826

  direct lattice vectors                    reciprocal lattice vectors
    12.325000000  0.000000000  0.000000000     0.081135903  0.046843835  0.000000000
    -6.162500000 10.673763102  0.000000000     0.000000000  0.093687670  0.000000000
     0.000000000  0.000000000 20.000000000     0.000000000  0.000000000  0.050000000

  length of vectors
    12.325000000 12.325000000 20.000000000     0.093687670  0.093687670  0.050000000

  position of ions in fractional coordinates (direct lattice)
     0.972450841  0.000320818  0.000708389
     0.039118382  0.133659505  0.000550216
     0.172443627  0.000295449  0.000624535
     0.239096278  0.133647917  0.000320585
     0.972452058  0.200322012  0.000606523
     0.039128360  0.333643771  0.000555187
     0.172451764  0.200354552  0.000273959
     0.239124359  0.333665720  0.000090325
     0.372465565  0.000324403  0.000567391
     0.439137473  0.133619939  0.000322923
     0.972449824  0.400309362  0.000684513
     0.039124981  0.533636789  0.000716763
     0.372416176  0.400329481  0.000000000
     0.439099602  0.533638981  0.000290518
     0.572443676  0.000312125  0.000699475
     0.639110207  0.133631751  0.000684093
     0.972452703  0.600305653  0.000800361
     0.039124495  0.733640359  0.000818141
     0.572433471  0.600306242  0.000503618
     0.639111888  0.733641879  0.000659881
     0.172454630  0.400318228  0.000361306
     0.239120185  0.533636548  0.000473136
     0.372459750  0.200295993  0.000111246
     0.439107096  0.333673419  0.000069702
     0.172452155  0.600311506  0.000655425
     0.239123371  0.733638574  0.000718912
     0.572431082  0.200289171  0.000516621
     0.639112773  0.333618630  0.000577970
     0.372439808  0.600308022  0.000453556
     0.439116090  0.733637858  0.000617737
     0.572469358  0.400320504  0.000424897
     0.639119408  0.533650873  0.000574513
     0.772445723  0.000315427  0.000745201
     0.839116277  0.133640203  0.000719132
     0.772440513  0.200307432  0.000726291
     0.839120241  0.333635728  0.000731834
     0.772446320  0.400298367  0.000728722
     0.839118980  0.533633964  0.000776376
     0.772456143  0.600308173  0.000744639
     0.839115033  0.733643180  0.000789390
     0.972455313  0.800305582  0.000815291
     0.039114714  0.933643289  0.000747563
     0.172457971  0.800312211  0.000779216
     0.239134551  0.933647193  0.000681063
     0.372451396  0.800316674  0.000689249
     0.439124489  0.933644769  0.000676788
     0.572441101  0.800310054  0.000668168
     0.639115067  0.933638985  0.000734556
     0.772445098  0.800313187  0.000752577
     0.839116614  0.933644338  0.000758538
     0.373021009  0.251226878  0.445449359
     0.420879805  0.189313152  0.448670452
     0.325156981  0.313167186  0.442476615

  ion indices of the primitive-cell ions
   primitive index   ion index
                 1           1
                 2           2
                 3           3
                 4           4
                 5           5
                 6           6
                 7           7
                 8           8
                 9           9
                10          10
                11          11
                12          12
                13          13
                14          14
                15          15
                16          16
                17          17
                18          18
                19          19
                20          20
                21          21
                22          22
                23          23
                24          24
                25          25
                26          26
                27          27
                28          28
                29          29
                30          30
                31          31
                32          32
                33          33
                34          34
                35          35
                36          36
                37          37
                38          38
                39          39
                40          40
                41          41
                42          42
                43          43
                44          44
                45          45
                46          46
                47          47
                48          48
                49          49
                50          50
                51          51
                52          52
                53          53

----------------------------------------------------------------------------------------

 
 
 KPOINTS: auto                                    

Automatic generation of k-mesh.
 Grid dimensions read from file:
 generate k-points for:    1    1    1

 Generating k-lattice:

  Cartesian coordinates                     Fractional coordinates (reciprocal lattice)
     0.081135903  0.046843835  0.000000000     1.000000000 -0.000000000  0.000000000
     0.000000000  0.093687670  0.000000000     0.000000000  1.000000000  0.000000000
     0.000000000  0.000000000  0.050000000     0.000000000  0.000000000  1.000000000

  Length of vectors
     0.093687670  0.093687670  0.050000000

  Shift w.r.t. Gamma in fractional coordinates (k-lattice)
     0.000000000  0.000000000  0.000000000

 
 Subroutine IBZKPT returns following result:
 ===========================================
 
 Found      1 irreducible k-points:
 
 Following reciprocal coordinates:
            Coordinates               Weight
  0.000000  0.000000  0.000000      1.000000
 
 Following cartesian coordinates:
            Coordinates               Weight
  0.000000  0.000000  0.000000      1.000000
 


--------------------------------------------------------------------------------------------------------




 Dimension of arrays:
   k-points           NKPTS =      1   k-points in BZ     NKDIM =      1   number of bands    NBANDS=    168
   number of dos      NEDOS =    301   number of ions     NIONS =     53
   non local maximal  LDIM  =      4   non local SUM 2l+1 LMDIM =      8
   total plane-waves  NPLWV = ******
   max r-space proj   IRMAX =      1   max aug-charges    IRDMAX=   9736
   dimension x,y,z NGX =   128 NGY =  128 NGZ =  210
   dimension x,y,z NGXF=   256 NGYF=  256 NGZF=  420
   support grid    NGXF=   256 NGYF=  256 NGZF=  420
   ions per type =              51   2
   NGX,Y,Z   is equivalent  to a cutoff of  17.27, 17.27, 17.46 a.u.
   NGXF,Y,Z  is equivalent  to a cutoff of  34.53, 34.53, 34.91 a.u.

 SYSTEM =  unknown system                          
 POSCAR =   C  O                                   

 Startparameter for this run:
   NWRITE =      2    write-flag & timer
   PREC   = accura    normal or accurate (medium, high low for compatibility)
   ISTART =      0    job   : 0-new  1-cont  2-samecut
   ICHARG =      2    charge: 1-file 2-atom 10-const
   ISPIN  =      1    spin polarized calculation?
   LNONCOLLINEAR =      F non collinear calculations
   LSORBIT =      F    spin-orbit coupling
   INIWAV =      1    electr: 0-lowe 1-rand  2-diag
   LASPH  =      T    aspherical Exc in radial PAW
 Electronic Relaxation 1
   ENCUT  = 1000.0 eV  73.50 Ry    8.57 a.u.  31.78 31.78 51.57*2*pi/ulx,y,z
   ENINI  = 1000.0     initial cutoff
   ENAUG  =  946.8 eV  augmentation charge cutoff
   NELM   =     60;   NELMIN=  2; NELMDL= -5     # of ELM steps 
   EDIFF  = 0.1E-06   stopping-criterion for ELM
   LREAL  =      F    real-space projection
   NLSPLINE    = F    spline interpolate recip. space projectors
   LCOMPAT=      F    compatible to vasp.4.4
   GGA_COMPAT  = T    GGA compatible to vasp.4.4-vasp.4.6
   LMAXPAW     = -100 max onsite density
   LMAXMIX     =    2 max onsite mixed and CHGCAR
   VOSKOWN=      0    Vosko Wilk Nusair interpolation
   ROPT   =    0.00000   0.00000
 Ionic relaxation
   EDIFFG = 0.1E-05   stopping-criterion for IOM
   NSW    =      0    number of steps for IOM
   NBLOCK =      1;   KBLOCK =      1    inner block; outer block 
   IBRION =     -1    ionic relax: 0-MD 1-quasi-New 2-CG
   NFREE  =      0    steps in history (QN), initial steepest desc. (CG)
   ISIF   =      0    stress and relaxation
   IWAVPR =     10    prediction:  0-non 1-charg 2-wave 3-comb
   ISYM   =      2    0-nonsym 1-usesym 2-fastsym
   LCORR  =      T    Harris-Foulkes like correction to forces

   POTIM  = 0.5000    time-step for ionic-motion
   TEIN   =    0.0    initial temperature
   TEBEG  =    0.0;   TEEND  =   0.0 temperature during run
   SMASS  =  -3.00    Nose mass-parameter (am)
   estimated Nose-frequenzy (Omega)   =  0.10E-29 period in steps = 0.13E+47 mass=  -0.347E-26a.u.
   SCALEE = 1.0000    scale energy and forces
   NPACO  =    256;   APACO  = 16.0  distance and # of slots for P.C.
   PSTRESS=    0.0 pullay stress

  Mass of Ions in am
   POMASS =  12.01 16.00
  Ionic Valenz
   ZVAL   =   4.00  6.00
  Atomic Wigner-Seitz radii
   RWIGS  =  -1.00 -1.00
  virtual crystal weights 
   VCA    =   1.00  1.00
   NELECT =     216.0000    total number of electrons
   NUPDOWN=      -1.0000    fix difference up-down

 DOS related values:
   EMIN   =  10.00;   EMAX   =-10.00  energy-range for DOS
   EFERMI =   0.00
   ISMEAR =     0;   SIGMA  =   0.01  broadening in eV -4-tet -1-fermi 0-gaus

 Electronic relaxation 2 (details)
   IALGO  =     58    algorithm
   LDIAG  =      T    sub-space diagonalisation (order eigenvalues)
   LSUBROT=      F    optimize rotation matrix (better conditioning)
   TURBO    =      0    0=normal 1=particle mesh
   IRESTART =      0    0=no restart 2=restart with 2 vectors
   NREBOOT  =      0    no. of reboots
   NMIN     =      0    reboot dimension
   EREF     =   0.00    reference energy to select bands
   IMIX   =      4    mixing-type and parameters
     AMIX     =   0.40;   BMIX     =  1.00
     AMIX_MAG =   1.60;   BMIX_MAG =  1.00
     AMIN     =   0.10
     WC   =   100.;   INIMIX=   1;  MIXPRE=   1;  MAXMIX= -45

 Intra band minimization:
   WEIMIN = 0.0000     energy-eigenvalue tresh-hold
   EBREAK =  0.15E-09  absolut break condition
   DEPER  =   0.30     relativ break condition  

   TIME   =   0.40     timestep for ELM

  volume/ion in A,a.u.               =      49.64       335.01
  Fermi-wavevector in a.u.,A,eV,Ry     =   0.711510  1.344560  6.887909  0.506247
  Thomas-Fermi vector in A             =   1.798641
 
 Write flags
   LWAVE        =      T    write WAVECAR
   LDOWNSAMPLE  =      F    k-point downsampling of WAVECAR
   LCHARG       =      T    write CHGCAR
   LVTOT        =      F    write LOCPOT, total local potential
   LVHAR        =      F    write LOCPOT, Hartree potential only
   LELF         =      F    write electronic localiz. function (ELF)
   LORBIT       =      0    0 simple, 1 ext, 2 COOP (PROOUT), +10 PAW based schemes


 Dipole corrections
   LMONO  =      F    monopole corrections only (constant potential shift)
   LDIPOL =      F    correct potential (dipole corrections)
   IDIPOL =      0    1-x, 2-y, 3-z, 4-all directions 
   EPSILON=  1.0000000 bulk dielectric constant

 Exchange correlation treatment:
   GGA     =    --    GGA type
   LEXCH   =     8    internal setting for exchange type
   VOSKOWN=      0    Vosko Wilk Nusair interpolation
   LHFCALC =     F    Hartree Fock is set to
   LHFONE  =     F    Hartree Fock one center treatment
   AEXX    =    0.0000 exact exchange contribution

 Linear response parameters
   LEPSILON=     F    determine dielectric tensor
   LRPA    =     F    only Hartree local field effects (RPA)
   LNABLA  =     F    use nabla operator in PAW spheres
   LVEL    =     F    velocity operator in full k-point grid
   LINTERFAST=   F  fast interpolation
   KINTER  =     0    interpolate to denser k-point grid
   CSHIFT  =0.1000    complex shift for real part using Kramers Kronig
   OMEGAMAX=  -1.0    maximum frequency
   DEG_THRESHOLD= 0.2000000E-02 threshold for treating states as degnerate
   RTIME   =   -0.100 relaxation time in fs
  (WPLASMAI=    0.000 imaginary part of plasma frequency in eV, 0.658/RTIME)
   DFIELD  = 0.0000000 0.0000000 0.0000000 field for delta impulse in time
 
 Orbital magnetization related:
   ORBITALMAG=     F  switch on orbital magnetization
   LCHIMAG   =     F  perturbation theory with respect to B field
   DQ        =  0.001000  dq finite difference perturbation B field
   LLRAUG    =     F  two centre corrections for induced B field



--------------------------------------------------------------------------------------------------------


 Static calculation
 charge density and potential will be updated during run
 non-spin polarized calculation
 Conjugate gradient for all bands (Freysoldt, et al. PRB 79, 241103 (2009))
 preconditioned conjugated gradient                                        
 perform sub-space diagonalisation
    before iterative eigenvector-optimisation
 modified Broyden-mixing scheme, WC =      100.0
 initial mixing is a Kerker type mixing with AMIX =  0.4000 and BMIX =      1.0000
 Hartree-type preconditioning will be used
 using additional bands           60
 reciprocal scheme for non local part
 use partial core corrections
 no Harris-corrections to forces 
 use gradient corrections 
 use of overlap-Matrix (Vanderbilt PP)
 Gauss-broadening in eV      SIGMA  =   0.01


--------------------------------------------------------------------------------------------------------


  energy-cutoff  :     1000.00
  volume of cell :     2631.08
      direct lattice vectors                 reciprocal lattice vectors
    12.325000000  0.000000000  0.000000000     0.081135903  0.046843835  0.000000000
    -6.162500000 10.673763102  0.000000000     0.000000000  0.093687670  0.000000000
     0.000000000  0.000000000 20.000000000     0.000000000  0.000000000  0.050000000

  length of vectors
    12.325000000 12.325000000 20.000000000     0.093687670  0.093687670  0.050000000


 
 k-points in units of 2pi/SCALE and weight: auto                                    
   0.00000000  0.00000000  0.00000000       1.000
 
 k-points in reciprocal lattice and weights: auto                                    
   0.00000000  0.00000000  0.00000000       1.000
 
 position of ions in fractional coordinates (direct lattice) 
   0.97245084  0.00032082  0.00070839
   0.03911838  0.13365950  0.00055022
   0.17244363  0.00029545  0.00062454
   0.23909628  0.13364792  0.00032058
   0.97245206  0.20032201  0.00060652
   0.03912836  0.33364377  0.00055519
   0.17245176  0.20035455  0.00027396
   0.23912436  0.33366572  0.00009033
   0.37246557  0.00032440  0.00056739
   0.43913747  0.13361994  0.00032292
   0.97244982  0.40030936  0.00068451
   0.03912498  0.53363679  0.00071676
   0.37241618  0.40032948  0.00000000
   0.43909960  0.53363898  0.00029052
   0.57244368  0.00031213  0.00069947
   0.63911021  0.13363175  0.00068409
   0.97245270  0.60030565  0.00080036
   0.03912449  0.73364036  0.00081814
   0.57243347  0.60030624  0.00050362
   0.63911189  0.73364188  0.00065988
   0.17245463  0.40031823  0.00036131
   0.23912018  0.53363655  0.00047314
   0.37245975  0.20029599  0.00011125
   0.43910710  0.33367342  0.00006970
   0.17245216  0.60031151  0.00065542
   0.23912337  0.73363857  0.00071891
   0.57243108  0.20028917  0.00051662
   0.63911277  0.33361863  0.00057797
   0.37243981  0.60030802  0.00045356
   0.43911609  0.73363786  0.00061774
   0.57246936  0.40032050  0.00042490
   0.63911941  0.53365087  0.00057451
   0.77244572  0.00031543  0.00074520
   0.83911628  0.13364020  0.00071913
   0.77244051  0.20030743  0.00072629
   0.83912024  0.33363573  0.00073183
   0.77244632  0.40029837  0.00072872
   0.83911898  0.53363396  0.00077638
   0.77245614  0.60030817  0.00074464
   0.83911503  0.73364318  0.00078939
   0.97245531  0.80030558  0.00081529
   0.03911471  0.93364329  0.00074756
   0.17245797  0.80031221  0.00077922
   0.23913455  0.93364719  0.00068106
   0.37245140  0.80031667  0.00068925
   0.43912449  0.93364477  0.00067679
   0.57244110  0.80031005  0.00066817
   0.63911507  0.93363899  0.00073456
   0.77244510  0.80031319  0.00075258
   0.83911661  0.93364434  0.00075854
   0.37302101  0.25122688  0.44544936
   0.42087980  0.18931315  0.44867045
   0.32515698  0.31316719  0.44247662
 
 position of ions in cartesian coordinates  (Angst):
  11.98347958  0.00342433  0.01416777
  -0.34154264  1.42664989  0.01100432
   2.12354700  0.00315355  0.01249070
   2.12325634  1.42652621  0.00641170
  10.75098721  2.13818970  0.01213047
  -1.57382270  3.56123457  0.01110375
   0.89078307  2.13853702  0.00547917
   0.89099273  3.56146885  0.00180651
   4.58863896  0.00346260  0.01134782
   4.58893648  1.42622757  0.00645846
   9.51853763  4.27280730  0.01369027
  -2.80632132  5.69591267  0.01433526
   2.12299894  4.27302204  0.00000000
   2.12335237  5.69593607  0.00581036
   7.05344483  0.00333155  0.01398950
   7.05352764  1.42635365  0.01368187
   8.28609598  6.40752033  0.01600723
  -4.03884931  7.83070339  0.01636283
   3.35585531  6.40752662  0.01007237
   3.35598594  7.83071962  0.01319763
  -0.34145776  4.27290193  0.00722612
  -0.34137895  5.69591010  0.00946273
   3.35624236  2.13791198  0.00222492
   3.35573251  3.56155103  0.00139405
  -1.57394684  6.40758280  0.01310850
  -1.57385216  7.83068434  0.01437823
   5.82093107  2.13783916  0.01033241
   5.82114012  3.56096622  0.01155939
   0.89092245  6.40754561  0.00907111
   0.89106251  7.83067670  0.01235474
   4.58870974  4.27292622  0.00849795
   4.58852320  5.69606300  0.01149026
   9.51844972  0.00336679  0.01490402
   9.51855036  1.42644387  0.01438264
   8.28593477  2.13803408  0.01452582
   8.28612680  3.56114872  0.01463668
   7.05356221  4.27268994  0.01457444
   7.05362213  5.69588251  0.01552751
   5.82112285  6.40754723  0.01489279
   5.82101669  7.83073350  0.01578780
   7.05362858  8.54227219  0.01630582
  -5.27148792  9.96548729  0.01495127
  -2.80637951  8.54234295  0.01558431
  -2.80626749  9.96552896  0.01362126
  -0.34148805  8.54239058  0.01378498
  -0.34137657  9.96550309  0.01353576
   2.12342586  8.54231992  0.01336337
   2.12354296  9.96544135  0.01469111
   4.58845581  8.54235337  0.01505154
   4.58852904  9.96549848  0.01517076
   3.04929830  2.68153618  8.90898718
   4.02070129  2.02068374  8.97340904
   2.07766701  3.34267235  8.84953231
 


--------------------------------------------------------------------------------------------------------


 k-point   1 :   0.0000 0.0000 0.0000  plane waves:  189031

 maximum and minimum number of plane-waves per node :    189031   189031

 maximum number of plane-waves:    189031
 maximum index in each direction: 
   IXMAX=   31   IYMAX=   31   IZMAX=   51
   IXMIN=  -31   IYMIN=  -31   IZMIN=  -51


 serial   3D FFT for wavefunctions
 parallel 3D FFT for charge:
    minimum data exchange during FFTs selected (reduces bandwidth)


 total amount of memory used by VASP MPI-rank0   556209. kBytes
=======================================================================

   base      :      30000. kBytes
   nonl-proj :     184518. kBytes
   fftplans  :      31725. kBytes
   grid      :     282516. kBytes
   one-center:        162. kBytes
   wavefun   :      27288. kBytes
 
     INWAV:  cpu time    0.0000: real time    0.0000
 Broyden mixing: mesh for mixing (old mesh)
   NGX = 63   NGY = 63   NGZ =103
  (NGX  =256   NGY  =256   NGZ  =420)
  gives a total of 408807 points

 initial charge density was supplied:
 charge density of overlapping atoms calculated
 number of electron     216.0000000 magnetization 
 keeping initial charge density in first step


--------------------------------------------------------------------------------------------------------


 Maximum index for augmentation-charges          459 (set IRDMAX)


--------------------------------------------------------------------------------------------------------


 First call to EWALD:  gamma=   0.128
 Maximum number of real-space cells 3x 3x 2
 Maximum number of reciprocal cells 3x 3x 4

    FEWALD:  cpu time    0.0024: real time    0.0024


--------------------------------------- Iteration      1(   1)  ---------------------------------------


    POTLOK:  cpu time    1.4922: real time    1.5047
    SETDIJ:  cpu time    0.2014: real time    0.2026
    TRIAL :  cpu time   21.7412: real time   21.9521
    CORREC:  cpu time    0.0006: real time    0.0007
    --------------------------------------------
      LOOP:  cpu time   23.4477: real time   23.6860

 eigenvalue-minimisations  :   336
 total energy-change (2. order) : 0.2408277E+04  (-0.1180617E+05)
 number of electron     216.0000000 magnetization 
 augmentation part      216.0000000 magnetization 

 Free energy of the ion-electron system (eV)
  ---------------------------------------------------
  alpha Z        PSCENC =        59.93625244
  Ewald energy   TEWEN  =     29343.19250866
  -Hartree energ DENC   =    -35518.65041254
  -exchange      EXHF   =         0.00000000
  -V(xc)+E(xc)   XCENC  =       602.80029444
  PAW double counting   =      6339.73130699    -6197.22120962
  entropy T*S    EENTRO =        -0.00000000
  eigenvalues    EBANDS =      -591.03493095
  atomic energy  EATOM  =      8369.52358910
  ---------------------------------------------------
  free energy    TOTEN  =      2408.27739852 eV

  energy without entropy =     2408.27739852  energy(sigma->0) =     2408.27739852


--------------------------------------------------------------------------------------------------------




--------------------------------------- Iteration      1(   2)  ---------------------------------------


    TRIAL :  cpu time   30.9137: real time   31.2117
    CORREC:  cpu time    0.0001: real time    0.0001
    --------------------------------------------
      LOOP:  cpu time   30.9303: real time   31.2306

 eigenvalue-minimisations  :   560
 total energy-change (2. order) :-0.2440323E+04  (-0.2312767E+04)
 number of electron     216.0000000 magnetization 
 augmentation part      216.0000000 magnetization 

 Free energy of the ion-electron system (eV)
  ---------------------------------------------------
  alpha Z        PSCENC =        59.93625244
  Ewald energy   TEWEN  =     29343.19250866
  -Hartree energ DENC   =    -35518.65041254
  -exchange      EXHF   =         0.00000000
  -V(xc)+E(xc)   XCENC  =       602.80029444
  PAW double counting   =      6339.73130699    -6197.22120962
  entropy T*S    EENTRO =        -0.00000000
  eigenvalues    EBANDS =     -3031.35819005
  atomic energy  EATOM  =      8369.52358910
  ---------------------------------------------------
  free energy    TOTEN  =       -32.04586058 eV

  energy without entropy =      -32.04586058  energy(sigma->0) =      -32.04586058


--------------------------------------------------------------------------------------------------------




--------------------------------------- Iteration      1(   3)  ---------------------------------------


    TRIAL :  cpu time   24.0208: real time   24.2269
    CORREC:  cpu time    0.0001: real time    0.0001
    --------------------------------------------
      LOOP:  cpu time   24.0462: real time   24.2573

 eigenvalue-minimisations  :   392
 total energy-change (2. order) :-0.5613136E+03  (-0.5582913E+03)
 number of electron     216.0000000 magnetization 
 augmentation part      216.0000000 magnetization 

 Free energy of the ion-electron system (eV)
  ---------------------------------------------------
  alpha Z        PSCENC =        59.93625244
  Ewald energy   TEWEN  =     29343.19250866
  -Hartree energ DENC   =    -35518.65041254
  -exchange      EXHF   =         0.00000000
  -V(xc)+E(xc)   XCENC  =       602.80029444
  PAW double counting   =      6339.73130699    -6197.22120962
  entropy T*S    EENTRO =        -0.00000000
  eigenvalues    EBANDS =     -3592.67181357
  atomic energy  EATOM  =      8369.52358910
  ---------------------------------------------------
  free energy    TOTEN  =      -593.35948410 eV

  energy without entropy =     -593.35948410  energy(sigma->0) =     -593.35948410


--------------------------------------------------------------------------------------------------------




--------------------------------------- Iteration      1(   4)  ---------------------------------------


    TRIAL :  cpu time   26.3078: real time   26.5478
    CORREC:  cpu time    0.0001: real time    0.0001
    --------------------------------------------
      LOOP:  cpu time   26.3441: real time   26.5876

 eigenvalue-minimisations  :   448
 total energy-change (2. order) :-0.2636783E+02  (-0.2620264E+02)
 number of electron     216.0000000 magnetization 
 augmentation part      216.0000000 magnetization 

 Free energy of the ion-electron system (eV)
  ---------------------------------------------------
  alpha Z        PSCENC =        59.93625244
  Ewald energy   TEWEN  =     29343.19250866
  -Hartree energ DENC   =    -35518.65041254
  -exchange      EXHF   =         0.00000000
  -V(xc)+E(xc)   XCENC  =       602.80029444
  PAW double counting   =      6339.73130699    -6197.22120962
  entropy T*S    EENTRO =        -0.00000000
  eigenvalues    EBANDS =     -3619.03964622
  atomic energy  EATOM  =      8369.52358910
  ---------------------------------------------------
  free energy    TOTEN  =      -619.72731674 eV

  energy without entropy =     -619.72731674  energy(sigma->0) =     -619.72731674


--------------------------------------------------------------------------------------------------------




--------------------------------------- Iteration      1(   5)  ---------------------------------------


    TRIAL :  cpu time   21.7613: real time   21.9394
    CORREC:  cpu time    0.0001: real time    0.0001
    CHARGE:  cpu time    2.2837: real time    2.3006
    --------------------------------------------
      LOOP:  cpu time   24.1430: real time   24.3393

 eigenvalue-minimisations  :   336
 total energy-change (2. order) :-0.9254856E+00  (-0.9250071E+00)
 number of electron     216.0000000 magnetization 
 augmentation part       -0.4298895 magnetization 

 Free energy of the ion-electron system (eV)
  ---------------------------------------------------
  alpha Z        PSCENC =        59.93625244
  Ewald energy   TEWEN  =     29343.19250866
  -Hartree energ DENC   =    -35518.65041254
  -exchange      EXHF   =         0.00000000
  -V(xc)+E(xc)   XCENC  =       602.80029444
  PAW double counting   =      6339.73130699    -6197.22120962
  entropy T*S    EENTRO =        -0.00000000
  eigenvalues    EBANDS =     -3619.96513182
  atomic energy  EATOM  =      8369.52358910
  ---------------------------------------------------
  free energy    TOTEN  =      -620.65280235 eV

  energy without entropy =     -620.65280235  energy(sigma->0) =     -620.65280235


--------------------------------------------------------------------------------------------------------




--------------------------------------- Iteration      1(   6)  ---------------------------------------


    POTLOK:  cpu time    1.4550: real time    1.4627
    SETDIJ:  cpu time    0.2302: real time    0.2310
    TRIAL :  cpu time   15.4734: real time   15.6077
    CORREC:  cpu time    7.1063: real time    7.1701
    CHARGE:  cpu time    2.2691: real time    2.3049
    --------------------------------------------
      LOOP:  cpu time   26.6076: real time   26.8534

 eigenvalue-minimisations  :     0
 total energy-change (2. order) : 0.1041416E+03  (-0.1203121E+02)
 number of electron     216.0000000 magnetization 
 augmentation part       -0.4921519 magnetization 

 Free energy of the ion-electron system (eV)
  ---------------------------------------------------
  alpha Z        PSCENC =        59.93625244
  Ewald energy   TEWEN  =     29343.19250866
  -Hartree energ DENC   =    -36850.57624522
  -exchange      EXHF   =         0.00000000
  -V(xc)+E(xc)   XCENC  =       669.77605000
  PAW double counting   =    113770.24594861  -113633.48139724
  entropy T*S    EENTRO =        -0.00000000
  eigenvalues    EBANDS =     -2245.12790666
  atomic energy  EATOM  =      8369.52358910
  ---------------------------------------------------
  free energy    TOTEN  =      -516.51120032 eV

  energy without entropy =     -516.51120032  energy(sigma->0) =     -516.51120032


--------------------------------------------------------------------------------------------------------




--------------------------------------- Iteration      1(   7)  ---------------------------------------


    POTLOK:  cpu time    1.4459: real time    1.4551
    SETDIJ:  cpu time    0.2214: real time    0.2222
    TRIAL :  cpu time   15.4914: real time   15.6129
    CORREC:  cpu time    7.0870: real time    7.1636
    CHARGE:  cpu time    2.2817: real time    2.3013
    --------------------------------------------
      LOOP:  cpu time   26.6039: real time   26.8667

 eigenvalue-minimisations  :     0
 total energy-change (2. order) :-0.1204579E+02  (-0.1606615E+01)
 number of electron     216.0000000 magnetization 
 augmentation part       -0.5232593 magnetization 

 Free energy of the ion-electron system (eV)
  ---------------------------------------------------
  alpha Z        PSCENC =        59.93625244
  Ewald energy   TEWEN  =     29343.19250866
  -Hartree energ DENC   =    -36434.23640434
  -exchange      EXHF   =         0.00000000
  -V(xc)+E(xc)   XCENC  =       649.96030282
  PAW double counting   =    132047.19415062  -131907.68248057
  entropy T*S    EENTRO =        -0.00000000
  eigenvalues    EBANDS =     -2656.44491268
  atomic energy  EATOM  =      8369.52358910
  ---------------------------------------------------
  free energy    TOTEN  =      -528.55699395 eV

  energy without entropy =     -528.55699395  energy(sigma->0) =     -528.55699395


--------------------------------------------------------------------------------------------------------




--------------------------------------- Iteration      1(   8)  ---------------------------------------


    POTLOK:  cpu time    1.4547: real time    1.4627
    SETDIJ:  cpu time    0.2131: real time    0.2139
    TRIAL :  cpu time   15.6398: real time   15.7544
    CORREC:  cpu time    7.1224: real time    7.1706
    CHARGE:  cpu time    2.2966: real time    2.3130
    --------------------------------------------
      LOOP:  cpu time   26.7531: real time   27.0097

 eigenvalue-minimisations  :     0
 total energy-change (2. order) :-0.1606461E+01  (-0.5406833E+00)
 number of electron     216.0000000 magnetization 
 augmentation part       -0.5208797 magnetization 

 Free energy of the ion-electron system (eV)
  ---------------------------------------------------
  alpha Z        PSCENC =        59.93625244
  Ewald energy   TEWEN  =     29343.19250866
  -Hartree energ DENC   =    -36403.27146356
  -exchange      EXHF   =         0.00000000
  -V(xc)+E(xc)   XCENC  =       648.34424867
  PAW double counting   =    140093.89510795  -139953.89761710
  entropy T*S    EENTRO =        -0.00000000
  eigenvalues    EBANDS =     -2687.88608104
  atomic energy  EATOM  =      8369.52358910
  ---------------------------------------------------
  free energy    TOTEN  =      -530.16345487 eV

  energy without entropy =     -530.16345487  energy(sigma->0) =     -530.16345487


--------------------------------------------------------------------------------------------------------




--------------------------------------- Iteration      1(   9)  ---------------------------------------


    POTLOK:  cpu time    1.4418: real time    1.4586
    SETDIJ:  cpu time    0.2188: real time    0.2198
    TRIAL :  cpu time   15.4500: real time   15.6125
    CORREC:  cpu time    7.1235: real time    7.1754
    CHARGE:  cpu time    2.2923: real time    2.3085
    --------------------------------------------
      LOOP:  cpu time   26.5543: real time   26.8200

 eigenvalue-minimisations  :     0
 total energy-change (2. order) :-0.5401904E+00  (-0.2179115E+00)
 number of electron     216.0000000 magnetization 
 augmentation part       -0.5150145 magnetization 

 Free energy of the ion-electron system (eV)
  ---------------------------------------------------
  alpha Z        PSCENC =        59.93625244
  Ewald energy   TEWEN  =     29343.19250866
  -Hartree energ DENC   =    -36410.21951141
  -exchange      EXHF   =         0.00000000
  -V(xc)+E(xc)   XCENC  =       648.05356165
  PAW double counting   =    146490.16450767  -146349.96074800
  entropy T*S    EENTRO =        -0.00000000
  eigenvalues    EBANDS =     -2681.39380538
  atomic energy  EATOM  =      8369.52358910
  ---------------------------------------------------
  free energy    TOTEN  =      -530.70364527 eV

  energy without entropy =     -530.70364527  energy(sigma->0) =     -530.70364527


--------------------------------------------------------------------------------------------------------




--------------------------------------- Iteration      1(  10)  ---------------------------------------


    POTLOK:  cpu time    1.4532: real time    1.4611
    SETDIJ:  cpu time    0.2235: real time    0.2243
    TRIAL :  cpu time   15.4771: real time   15.5945
    CORREC:  cpu time    7.1178: real time    7.1729
    CHARGE:  cpu time    2.2891: real time    2.3070
    --------------------------------------------
      LOOP:  cpu time   26.5900: real time   26.7900

 eigenvalue-minimisations  :     0
 total energy-change (2. order) :-0.2175353E+00  (-0.9276637E-01)
 number of electron     216.0000000 magnetization 
 augmentation part       -0.5079693 magnetization 

 Free energy of the ion-electron system (eV)
  ---------------------------------------------------
  alpha Z        PSCENC =        59.93625244
  Ewald energy   TEWEN  =     29343.19250866
  -Hartree energ DENC   =    -36409.76885652
  -exchange      EXHF   =         0.00000000
  -V(xc)+E(xc)   XCENC  =       647.82282827
  PAW double counting   =    149013.66678133  -148873.35901693
  entropy T*S    EENTRO =        -0.00000000
  eigenvalues    EBANDS =     -2681.93526689
  atomic energy  EATOM  =      8369.52358910
  ---------------------------------------------------
  free energy    TOTEN  =      -530.92118054 eV

  energy without entropy =     -530.92118054  energy(sigma->0) =     -530.92118054


--------------------------------------------------------------------------------------------------------




--------------------------------------- Iteration      1(  11)  ---------------------------------------


    POTLOK:  cpu time    1.4549: real time    1.4629
    SETDIJ:  cpu time    0.2255: real time    0.2263
    TRIAL :  cpu time   15.4422: real time   15.5919
    CORREC:  cpu time    7.1130: real time    7.1808
    CHARGE:  cpu time    2.3017: real time    2.3181
    --------------------------------------------
      LOOP:  cpu time   26.5629: real time   26.8234

 eigenvalue-minimisations  :     0
 total energy-change (2. order) :-0.9255733E-01  (-0.3604404E-01)
 number of electron     216.0000000 magnetization 
 augmentation part       -0.5037965 magnetization 

 Free energy of the ion-electron system (eV)
  ---------------------------------------------------
  alpha Z        PSCENC =        59.93625244
  Ewald energy   TEWEN  =     29343.19250866
  -Hartree energ DENC   =    -36403.86870353
  -exchange      EXHF   =         0.00000000
  -V(xc)+E(xc)   XCENC  =       647.67884517
  PAW double counting   =    148810.61999793  -148670.31316319
  entropy T*S    EENTRO =        -0.00000000
  eigenvalues    EBANDS =     -2687.78306445
  atomic energy  EATOM  =      8369.52358910
  ---------------------------------------------------
  free energy    TOTEN  =      -531.01373787 eV

  energy without entropy =     -531.01373787  energy(sigma->0) =     -531.01373787


--------------------------------------------------------------------------------------------------------




--------------------------------------- Iteration      1(  12)  ---------------------------------------


    POTLOK:  cpu time    1.4592: real time    1.4666
    SETDIJ:  cpu time    0.2251: real time    0.2258
    TRIAL :  cpu time   15.4684: real time   15.6056
    CORREC:  cpu time    7.1271: real time    7.1763
    CHARGE:  cpu time    2.2829: real time    2.2989
    --------------------------------------------
      LOOP:  cpu time   26.6184: real time   26.8321

 eigenvalue-minimisations  :     0
 total energy-change (2. order) :-0.3600867E-01  (-0.1137927E-01)
 number of electron     216.0000000 magnetization 
 augmentation part       -0.5037121 magnetization 

 Free energy of the ion-electron system (eV)
  ---------------------------------------------------
  alpha Z        PSCENC =        59.93625244
  Ewald energy   TEWEN  =     29343.19250866
  -Hartree energ DENC   =    -36399.14154325
  -exchange      EXHF   =         0.00000000
  -V(xc)+E(xc)   XCENC  =       647.57947597
  PAW double counting   =    148016.48406808  -147876.20616767
  entropy T*S    EENTRO =        -0.00000000
  eigenvalues    EBANDS =     -2692.41792987
  atomic energy  EATOM  =      8369.52358910
  ---------------------------------------------------
  free energy    TOTEN  =      -531.04974654 eV

  energy without entropy =     -531.04974654  energy(sigma->0) =     -531.04974654


--------------------------------------------------------------------------------------------------------




--------------------------------------- Iteration      1(  13)  ---------------------------------------


    POTLOK:  cpu time    1.4588: real time    1.4666
    SETDIJ:  cpu time    0.2185: real time    0.2192
    TRIAL :  cpu time   15.4840: real time   15.5951
    CORREC:  cpu time    7.1315: real time    7.1799
    CHARGE:  cpu time    2.2947: real time    2.3109
    --------------------------------------------
      LOOP:  cpu time   26.6590: real time   26.8545

 eigenvalue-minimisations  :     0
 total energy-change (2. order) :-0.1138953E-01  (-0.3138671E-02)
 number of electron     216.0000000 magnetization 
 augmentation part       -0.5044195 magnetization 

 Free energy of the ion-electron system (eV)
  ---------------------------------------------------
  alpha Z        PSCENC =        59.93625244
  Ewald energy   TEWEN  =     29343.19250866
  -Hartree energ DENC   =    -36397.75670558
  -exchange      EXHF   =         0.00000000
  -V(xc)+E(xc)   XCENC  =       647.53495864
  PAW double counting   =    147425.37630744  -147285.11321930
  entropy T*S    EENTRO =        -0.00000000
  eigenvalues    EBANDS =     -2693.75482747
  atomic energy  EATOM  =      8369.52358910
  ---------------------------------------------------
  free energy    TOTEN  =      -531.06113607 eV

  energy without entropy =     -531.06113607  energy(sigma->0) =     -531.06113607


--------------------------------------------------------------------------------------------------------




--------------------------------------- Iteration      1(  14)  ---------------------------------------


    POTLOK:  cpu time    1.4542: real time    1.4621
    SETDIJ:  cpu time    0.2245: real time    0.2252
    TRIAL :  cpu time   15.4814: real time   15.5967
    CORREC:  cpu time    7.1192: real time    7.1677
    CHARGE:  cpu time    2.2884: real time    2.3050
    --------------------------------------------
      LOOP:  cpu time   26.6378: real time   26.8289

 eigenvalue-minimisations  :     0
 total energy-change (2. order) :-0.3144365E-02  (-0.8334859E-03)
 number of electron     216.0000000 magnetization 
 augmentation part       -0.5047401 magnetization 

 Free energy of the ion-electron system (eV)
  ---------------------------------------------------
  alpha Z        PSCENC =        59.93625244
  Ewald energy   TEWEN  =     29343.19250866
  -Hartree energ DENC   =    -36397.76835766
  -exchange      EXHF   =         0.00000000
  -V(xc)+E(xc)   XCENC  =       647.53157434
  PAW double counting   =    147158.71904770  -147018.46199684
  entropy T*S    EENTRO =        -0.00000000
  eigenvalues    EBANDS =     -2693.73689817
  atomic energy  EATOM  =      8369.52358910
  ---------------------------------------------------
  free energy    TOTEN  =      -531.06428043 eV

  energy without entropy =     -531.06428043  energy(sigma->0) =     -531.06428043


--------------------------------------------------------------------------------------------------------




--------------------------------------- Iteration      1(  15)  ---------------------------------------


    POTLOK:  cpu time    1.4509: real time    1.4644
    SETDIJ:  cpu time    0.2252: real time    0.2263
    TRIAL :  cpu time   15.4729: real time   15.5945
    CORREC:  cpu time    7.1082: real time    7.1718
    CHARGE:  cpu time    2.2860: real time    2.3025
    --------------------------------------------
      LOOP:  cpu time   26.5999: real time   26.8211

 eigenvalue-minimisations  :     0
 total energy-change (2. order) :-0.8339498E-03  (-0.2476327E-03)
 number of electron     216.0000000 magnetization 
 augmentation part       -0.5049044 magnetization 

 Free energy of the ion-electron system (eV)
  ---------------------------------------------------
  alpha Z        PSCENC =        59.93625244
  Ewald energy   TEWEN  =     29343.19250866
  -Hartree energ DENC   =    -36397.67940553
  -exchange      EXHF   =         0.00000000
  -V(xc)+E(xc)   XCENC  =       647.53281753
  PAW double counting   =    147054.21578541  -146913.96138961
  entropy T*S    EENTRO =        -0.00000000
  eigenvalues    EBANDS =     -2693.82527237
  atomic energy  EATOM  =      8369.52358910
  ---------------------------------------------------
  free energy    TOTEN  =      -531.06511438 eV

  energy without entropy =     -531.06511438  energy(sigma->0) =     -531.06511438


--------------------------------------------------------------------------------------------------------




--------------------------------------- Iteration      1(  16)  ---------------------------------------


    POTLOK:  cpu time    1.4552: real time    1.4629
    SETDIJ:  cpu time    0.2250: real time    0.2258
    TRIAL :  cpu time   15.4345: real time   15.5960
    CORREC:  cpu time    7.1130: real time    7.1635
    CHARGE:  cpu time    2.2858: real time    2.3024
    --------------------------------------------
      LOOP:  cpu time   26.5865: real time   26.8298

 eigenvalue-minimisations  :     0
 total energy-change (2. order) :-0.2478432E-03  (-0.9347383E-04)
 number of electron     216.0000000 magnetization 
 augmentation part       -0.5049681 magnetization 

 Free energy of the ion-electron system (eV)
  ---------------------------------------------------
  alpha Z        PSCENC =        59.93625244
  Ewald energy   TEWEN  =     29343.19250866
  -Hartree energ DENC   =    -36397.59903093
  -exchange      EXHF   =         0.00000000
  -V(xc)+E(xc)   XCENC  =       647.53194430
  PAW double counting   =    146991.74997523  -146851.49621243
  entropy T*S    EENTRO =        -0.00000000
  eigenvalues    EBANDS =     -2693.90438858
  atomic energy  EATOM  =      8369.52358910
  ---------------------------------------------------
  free energy    TOTEN  =      -531.06536223 eV

  energy without entropy =     -531.06536223  energy(sigma->0) =     -531.06536223


--------------------------------------------------------------------------------------------------------




--------------------------------------- Iteration      1(  17)  ---------------------------------------


    POTLOK:  cpu time    1.4571: real time    1.4648
    SETDIJ:  cpu time    0.2169: real time    0.2177
    TRIAL :  cpu time   15.4649: real time   15.5916
    CORREC:  cpu time    7.1285: real time    7.1763
    CHARGE:  cpu time    2.2834: real time    2.2997
    --------------------------------------------
      LOOP:  cpu time   26.6939: real time   26.8974

 eigenvalue-minimisations  :     0
 total energy-change (2. order) :-0.9192873E-04  (-0.4331053E-04)
 number of electron     216.0000000 magnetization 
 augmentation part       -0.5049986 magnetization 

 Free energy of the ion-electron system (eV)
  ---------------------------------------------------
  alpha Z        PSCENC =        59.93625244
  Ewald energy   TEWEN  =     29343.19250866
  -Hartree energ DENC   =    -36397.75427100
  -exchange      EXHF   =         0.00000000
  -V(xc)+E(xc)   XCENC  =       647.54041549
  PAW double counting   =    146944.63021213  -146804.37723791
  entropy T*S    EENTRO =        -0.00000000
  eigenvalues    EBANDS =     -2693.75692307
  atomic energy  EATOM  =      8369.52358910
  ---------------------------------------------------
  free energy    TOTEN  =      -531.06545415 eV

  energy without entropy =     -531.06545415  energy(sigma->0) =     -531.06545415


--------------------------------------------------------------------------------------------------------




--------------------------------------- Iteration      1(  18)  ---------------------------------------


    POTLOK:  cpu time    1.4547: real time    1.4626
    SETDIJ:  cpu time    0.2205: real time    0.2212
    TRIAL :  cpu time   15.4530: real time   15.5940
    CORREC:  cpu time    7.1171: real time    7.1792
    CHARGE:  cpu time    2.2640: real time    2.2997
    --------------------------------------------
      LOOP:  cpu time   26.5335: real time   26.7830

 eigenvalue-minimisations  :     0
 total energy-change (2. order) :-0.4117272E-04  (-0.1849199E-04)
 number of electron     216.0000000 magnetization 
 augmentation part       -0.5050425 magnetization 

 Free energy of the ion-electron system (eV)
  ---------------------------------------------------
  alpha Z        PSCENC =        59.93625244
  Ewald energy   TEWEN  =     29343.19250866
  -Hartree energ DENC   =    -36397.84394901
  -exchange      EXHF   =         0.00000000
  -V(xc)+E(xc)   XCENC  =       647.54455599
  PAW double counting   =    146928.19412468  -146787.94095414
  entropy T*S    EENTRO =        -0.00000000
  eigenvalues    EBANDS =     -2693.67162305
  atomic energy  EATOM  =      8369.52358910
  ---------------------------------------------------
  free energy    TOTEN  =      -531.06549533 eV

  energy without entropy =     -531.06549533  energy(sigma->0) =     -531.06549533


--------------------------------------------------------------------------------------------------------




--------------------------------------- Iteration      1(  19)  ---------------------------------------


    POTLOK:  cpu time    1.4621: real time    1.4701
    SETDIJ:  cpu time    0.2146: real time    0.2153
    TRIAL :  cpu time   15.4740: real time   15.6071
    CORREC:  cpu time    7.1352: real time    7.1833
    CHARGE:  cpu time    2.2834: real time    2.3001
    --------------------------------------------
      LOOP:  cpu time   26.5968: real time   26.8170

 eigenvalue-minimisations  :     0
 total energy-change (2. order) :-0.1790372E-04  (-0.7571715E-05)
 number of electron     216.0000000 magnetization 
 augmentation part       -0.5050484 magnetization 

 Free energy of the ion-electron system (eV)
  ---------------------------------------------------
  alpha Z        PSCENC =        59.93625244
  Ewald energy   TEWEN  =     29343.19250866
  -Hartree energ DENC   =    -36397.84200883
  -exchange      EXHF   =         0.00000000
  -V(xc)+E(xc)   XCENC  =       647.54348876
  PAW double counting   =    146938.06414177  -146797.81018006
  entropy T*S    EENTRO =        -0.00000000
  eigenvalues    EBANDS =     -2693.67330507
  atomic energy  EATOM  =      8369.52358910
  ---------------------------------------------------
  free energy    TOTEN  =      -531.06551323 eV

  energy without entropy =     -531.06551323  energy(sigma->0) =     -531.06551323


--------------------------------------------------------------------------------------------------------




--------------------------------------- Iteration      1(  20)  ---------------------------------------


    POTLOK:  cpu time    1.4573: real time    1.4648
    SETDIJ:  cpu time    0.2204: real time    0.2210
    TRIAL :  cpu time   15.4798: real time   15.5924
    CORREC:  cpu time    7.1263: real time    7.1727
    CHARGE:  cpu time    2.2821: real time    2.2977
    --------------------------------------------
      LOOP:  cpu time   26.6055: real time   26.7907

 eigenvalue-minimisations  :     0
 total energy-change (2. order) :-0.7226685E-05  (-0.1837202E-05)
 number of electron     216.0000000 magnetization 
 augmentation part       -0.5050466 magnetization 

 Free energy of the ion-electron system (eV)
  ---------------------------------------------------
  alpha Z        PSCENC =        59.93625244
  Ewald energy   TEWEN  =     29343.19250866
  -Hartree energ DENC   =    -36397.87365671
  -exchange      EXHF   =         0.00000000
  -V(xc)+E(xc)   XCENC  =       647.54448553
  PAW double counting   =    146952.71483319  -146812.46074358
  entropy T*S    EENTRO =        -0.00000000
  eigenvalues    EBANDS =     -2693.64278909
  atomic energy  EATOM  =      8369.52358910
  ---------------------------------------------------
  free energy    TOTEN  =      -531.06552046 eV

  energy without entropy =     -531.06552046  energy(sigma->0) =     -531.06552046


--------------------------------------------------------------------------------------------------------




--------------------------------------- Iteration      1(  21)  ---------------------------------------


    POTLOK:  cpu time    1.4603: real time    1.4703
    SETDIJ:  cpu time    0.2219: real time    0.2227
    TRIAL :  cpu time   15.4607: real time   15.5877
    CORREC:  cpu time    7.1360: real time    7.1849
    CHARGE:  cpu time    2.2824: real time    2.2992
    --------------------------------------------
      LOOP:  cpu time   26.5848: real time   26.8513

 eigenvalue-minimisations  :     0
 total energy-change (2. order) :-0.1855573E-05  (-0.6477980E-06)
 number of electron     216.0000000 magnetization 
 augmentation part       -0.5050379 magnetization 

 Free energy of the ion-electron system (eV)
  ---------------------------------------------------
  alpha Z        PSCENC =        59.93625244
  Ewald energy   TEWEN  =     29343.19250866
  -Hartree energ DENC   =    -36397.86682332
  -exchange      EXHF   =         0.00000000
  -V(xc)+E(xc)   XCENC  =       647.54377109
  PAW double counting   =    146958.15065754  -146817.89651787
  entropy T*S    EENTRO =        -0.00000000
  eigenvalues    EBANDS =     -2693.64895996
  atomic energy  EATOM  =      8369.52358910
  ---------------------------------------------------
  free energy    TOTEN  =      -531.06552231 eV

  energy without entropy =     -531.06552231  energy(sigma->0) =     -531.06552231


--------------------------------------------------------------------------------------------------------




--------------------------------------- Iteration      1(  22)  ---------------------------------------


    POTLOK:  cpu time    1.4547: real time    1.4627
    SETDIJ:  cpu time    0.2320: real time    0.2328
    TRIAL :  cpu time   15.4576: real time   15.6023
    CORREC:  cpu time    7.1345: real time    7.1838
    CHARGE:  cpu time    2.2909: real time    2.3073
    --------------------------------------------
      LOOP:  cpu time   26.6621: real time   26.8830

 eigenvalue-minimisations  :     0
 total energy-change (2. order) :-0.5908078E-06  (-0.2609090E-06)
 number of electron     216.0000000 magnetization 
 augmentation part       -0.5050295 magnetization 

 Free energy of the ion-electron system (eV)
  ---------------------------------------------------
  alpha Z        PSCENC =        59.93625244
  Ewald energy   TEWEN  =     29343.19250866
  -Hartree energ DENC   =    -36397.86021413
  -exchange      EXHF   =         0.00000000
  -V(xc)+E(xc)   XCENC  =       647.54340127
  PAW double counting   =    146959.58908550  -146819.33499408
  entropy T*S    EENTRO =        -0.00000000
  eigenvalues    EBANDS =     -2693.65515166
  atomic energy  EATOM  =      8369.52358910
  ---------------------------------------------------
  free energy    TOTEN  =      -531.06552290 eV

  energy without entropy =     -531.06552290  energy(sigma->0) =     -531.06552290


--------------------------------------------------------------------------------------------------------




--------------------------------------- Iteration      1(  23)  ---------------------------------------


    POTLOK:  cpu time    1.4537: real time    1.4628
    SETDIJ:  cpu time    0.2224: real time    0.2231
    TRIAL :  cpu time   15.4530: real time   15.5819
    CORREC:  cpu time    7.1230: real time    7.1735
    CHARGE:  cpu time    2.2791: real time    2.2948
    --------------------------------------------
      LOOP:  cpu time   26.5879: real time   26.7982

 eigenvalue-minimisations  :     0
 total energy-change (2. order) :-0.2023298E-06  (-0.8950655E-07)
 number of electron     216.0000000 magnetization 
 augmentation part       -0.5050268 magnetization 

 Free energy of the ion-electron system (eV)
  ---------------------------------------------------
  alpha Z        PSCENC =        59.93625244
  Ewald energy   TEWEN  =     29343.19250866
  -Hartree energ DENC   =    -36397.85662474
  -exchange      EXHF   =         0.00000000
  -V(xc)+E(xc)   XCENC  =       647.54328146
  PAW double counting   =    146960.00172405  -146819.74769795
  entropy T*S    EENTRO =        -0.00000000
  eigenvalues    EBANDS =     -2693.65855613
  atomic energy  EATOM  =      8369.52358910
  ---------------------------------------------------
  free energy    TOTEN  =      -531.06552311 eV

  energy without entropy =     -531.06552311  energy(sigma->0) =     -531.06552311


--------------------------------------------------------------------------------------------------------




--------------------------------------- Iteration      1(  24)  ---------------------------------------


    POTLOK:  cpu time    1.4553: real time    1.4627
    SETDIJ:  cpu time    0.2224: real time    0.2231
    TRIAL :  cpu time   15.4880: real time   15.6045
    CORREC:  cpu time    7.1285: real time    7.1798
    EDDIAG:  cpu time    3.2013: real time    3.2256
    CHARGE:  cpu time    2.2759: real time    2.2946
    --------------------------------------------
      LOOP:  cpu time   29.8374: real time   30.0591

 eigenvalue-minimisations  :     0
 total energy-change (2. order) :-0.6347545E-07  (-0.3689084E-07)
 number of electron     216.0000000 magnetization 
 augmentation part       -0.5050253 magnetization 

 Free energy of the ion-electron system (eV)
  ---------------------------------------------------
  alpha Z        PSCENC =        59.93625244
  Ewald energy   TEWEN  =     29343.19250866
  -Hartree energ DENC   =    -36397.85482849
  -exchange      EXHF   =         0.00000000
  -V(xc)+E(xc)   XCENC  =       647.54323325
  PAW double counting   =    146960.04812971  -146819.79412596
  entropy T*S    EENTRO =        -0.00000000
  eigenvalues    EBANDS =     -2693.66028188
  atomic energy  EATOM  =      8369.52358910
  ---------------------------------------------------
  free energy    TOTEN  =      -531.06552317 eV

  energy without entropy =     -531.06552317  energy(sigma->0) =     -531.06552317


--------------------------------------------------------------------------------------------------------


  average scaling for gradient   1.0287


 average (electrostatic) potential at core
  the test charge radii are     0.5770  0.5955
  (the norm of the test charge is              1.0000)
       1 -87.7251       2 -87.7235       3 -87.7248       4 -87.7240       5 -87.7210
       6 -87.7196       7 -87.7232       8 -87.7199       9 -87.7211      10 -87.7218
      11 -87.7185      12 -87.7196      13 -87.7212      14 -87.7176      15 -87.7182
      16 -87.7209      17 -87.7215      18 -87.7239      19 -87.7215      20 -87.7206
      21 -87.7207      22 -87.7169      23 -87.7222      24 -87.7209      25 -87.7206
      26 -87.7198      27 -87.7176      28 -87.7218      29 -87.7212      30 -87.7171
      31 -87.7194      32 -87.7205      33 -87.7212      34 -87.7214      35 -87.7174
      36 -87.7208      37 -87.7180      38 -87.7222      39 -87.7218      40 -87.7240
      41 -87.7249      42 -87.7253      43 -87.7231      44 -87.7238      45 -87.7204
      46 -87.7197      47 -87.7206      48 -87.7198      49 -87.7236      50 -87.7238
      51 -91.8087      52-123.9336      53-123.9375
 
 
 
 E-fermi :  -4.0762     XC(G=0):  -2.3619     alpha+bet : -2.1113

 Fermi energy:        -4.0761724960

 k-point     1 :       0.0000    0.0000    0.0000
  band No.  band energies     occupation 
      1     -28.8694      2.00000
      2     -27.8429      2.00000
      3     -23.2296      2.00000
      4     -22.2441      2.00000
      5     -22.2433      2.00000
      6     -22.2428      2.00000
      7     -22.2426      2.00000
      8     -22.2423      2.00000
      9     -22.2415      2.00000
     10     -20.3116      2.00000
     11     -20.3115      2.00000
     12     -20.3112      2.00000
     13     -20.3105      2.00000
     14     -20.3100      2.00000
     15     -20.3098      2.00000
     16     -19.3761      2.00000
     17     -19.3759      2.00000
     18     -19.3754      2.00000
     19     -19.3753      2.00000
     20     -19.3744      2.00000
     21     -19.3741      2.00000
     22     -17.1554      2.00000
     23     -17.1550      2.00000
     24     -17.1546      2.00000
     25     -17.1542      2.00000
     26     -17.1533      2.00000
     27     -17.1532      2.00000
     28     -15.9961      2.00000
     29     -15.9960      2.00000
     30     -15.9949      2.00000
     31     -15.9947      2.00000
     32     -15.9943      2.00000
     33     -15.9941      2.00000
     34     -14.6034      2.00000
     35     -14.6033      2.00000
     36     -14.6025      2.00000
     37     -14.6023      2.00000
     38     -14.6021      2.00000
     39     -14.6018      2.00000
     40     -12.8227      2.00000
     41     -12.1450      2.00000
     42     -12.1448      2.00000
     43     -12.1443      2.00000
     44     -12.1442      2.00000
     45     -12.1430      2.00000
     46     -12.1427      2.00000
     47     -11.9263      2.00000
     48     -11.9262      2.00000
     49     -11.9252      2.00000
     50     -11.9249      2.00000
     51     -11.9245      2.00000
     52     -11.9244      2.00000
     53     -11.5454      2.00000
     54     -11.2889      2.00000
     55     -11.2877      2.00000
     56     -10.5903      2.00000
     57     -10.4805      2.00000
     58     -10.4802      2.00000
     59     -10.4786      2.00000
     60     -10.4782      2.00000
     61     -10.4781      2.00000
     62     -10.4779      2.00000
     63      -9.4175      2.00000
     64      -9.4166      2.00000
     65      -9.4163      2.00000
     66      -9.4161      2.00000
     67      -9.4159      2.00000
     68      -9.4155      2.00000
     69      -9.1801      2.00000
     70      -9.1798      2.00000
     71      -9.1796      2.00000
     72      -9.1789      2.00000
     73      -9.1785      2.00000
     74      -9.1782      2.00000
     75      -9.1779      2.00000
     76      -9.1768      2.00000
     77      -9.1765      2.00000
     78      -9.1762      2.00000
     79      -9.1760      2.00000
     80      -9.1754      2.00000
     81      -7.6938      2.00000
     82      -7.6916      2.00000
     83      -7.4737      2.00000
     84      -7.4722      2.00000
     85      -7.4718      2.00000
     86      -7.4714      2.00000
     87      -7.4693      2.00000
     88      -7.4685      2.00000
     89      -7.1756      2.00000
     90      -7.1754      2.00000
     91      -7.1752      2.00000
     92      -7.1748      2.00000
     93      -7.1743      2.00000
     94      -7.1741      2.00000
     95      -6.2310      2.00000
     96      -6.2309      2.00000
     97      -6.2306      2.00000
     98      -6.2303      2.00000
     99      -6.2297      2.00000
    100      -6.2294      2.00000
    101      -5.9561      2.00000
    102      -5.9538      2.00000
    103      -4.1338      2.00000
    104      -4.1334      2.00000
    105      -4.1326      2.00000
    106      -4.1326      2.00000
    107      -4.1322      2.00000
    108      -4.1321      2.00000
    109      -1.1575      0.00000
    110      -1.1574      0.00000
    111      -1.1572      0.00000
    112      -1.1570      0.00000
    113      -1.1562      0.00000
    114      -1.1559      0.00000
    115       0.8222      0.00000
    116       0.8225      0.00000
    117       0.8228      0.00000
    118       0.8232      0.00000
    119       0.8234      0.00000
    120       0.8249      0.00000
    121       1.0093      0.00000
    122       1.3085      0.00000
    123       1.5866      0.00000
    124       1.5878      0.00000
    125       1.7984      0.00000
    126       2.2868      0.00000
    127       2.3213      0.00000
    128       2.3282      0.00000
    129       2.3312      0.00000
    130       2.3344      0.00000
    131       2.3351      0.00000
    132       2.4569      0.00000
    133       2.6999      0.00000
    134       2.7001      0.00000
    135       2.7004      0.00000
    136       2.7008      0.00000
    137       2.7010      0.00000
    138       2.7015      0.00000
    139       2.8972      0.00000
    140       3.0023      0.00000
    141       3.0728      0.00000
    142       3.0921      0.00000
    143       3.0962      0.00000
    144       3.1134      0.00000
    145       3.1191      0.00000
    146       3.1226      0.00000
    147       3.1969      0.00000
    148       3.2259      0.00000
    149       3.2538      0.00000
    150       3.2985      0.00000
    151       3.3164      0.00000
    152       4.4906      0.00000
    153       4.5895      0.00000
    154       4.8209      0.00000
    155       4.8789      0.00000
    156       4.9153      0.00000
    157       5.1682      0.00000
    158       5.2635      0.00000
    159       5.2672      0.00000
    160       5.2881      0.00000
    161       5.3020      0.00000
    162       5.3063      0.00000
    163       5.3072      0.00000
    164       5.3080      0.00000
    165       5.3763      0.00000
    166       5.4536      0.00000
    167       5.5380      0.00000
    168       5.6026      0.00000


--------------------------------------------------------------------------------------------------------


 soft charge-density along one line, spin component           1
         0         1         2         3         4         5         6         7         8         9
 total charge-density along one line
 
 pseudopotential strength for first ion, spin component:           1
 12.630  21.251  -0.000   0.000   0.000  -0.000   0.000   0.000
 21.251  35.755  -0.000   0.000   0.000  -0.000   0.000   0.000
 -0.000  -0.000  -3.234   0.000   0.000  -5.794   0.000   0.000
  0.000   0.000   0.000  -3.238   0.000   0.000  -5.800   0.000
  0.000   0.000   0.000   0.000  -3.234   0.000   0.000  -5.794
 -0.000  -0.000  -5.794   0.000   0.000 -10.357   0.000   0.000
  0.000   0.000   0.000  -5.800   0.000   0.000 -10.368   0.000
  0.000   0.000   0.000   0.000  -5.794   0.000   0.000 -10.358
 total augmentation occupancy for first ion, spin component:           1
  9.643  -3.599   0.000  -0.002  -0.001  -0.000   0.001   0.000
 -3.599   1.374  -0.000   0.001   0.001   0.000  -0.000  -0.000
  0.000  -0.000   8.197  -0.009   0.001  -2.896   0.004  -0.000
 -0.002   0.001  -0.009   3.784  -0.000   0.004  -1.107   0.000
 -0.001   0.001   0.001  -0.000   8.196  -0.000   0.000  -2.895
 -0.000   0.000  -2.896   0.004  -0.000   1.036  -0.001   0.000
  0.001  -0.000   0.004  -1.107   0.000  -0.001   0.329  -0.000
  0.000  -0.000  -0.000   0.000  -2.895   0.000  -0.000   1.036


------------------------ aborting loop because EDIFF is reached ----------------------------------------


    FORLOC:  cpu time    0.1055: real time    0.1062
    FORNL :  cpu time    2.9124: real time    2.9360
    FORCOR:  cpu time    1.5210: real time    1.5291
    OFIELD:  cpu time    0.0024: real time    0.0024

 VOLUME and BASIS-vectors are now :
 -----------------------------------------------------------------------------
  energy-cutoff  :     1000.00
  volume of cell :     2631.08
      direct lattice vectors                 reciprocal lattice vectors
    12.325000000  0.000000000  0.000000000     0.081135903  0.046843835  0.000000000
    -6.162500000 10.673763102  0.000000000     0.000000000  0.093687670  0.000000000
     0.000000000  0.000000000 20.000000000     0.000000000  0.000000000  0.050000000

  length of vectors
    12.325000000 12.325000000 20.000000000     0.093687670  0.093687670  0.050000000


 FORCES acting on ions:
    Electron-Ion                     Ewald-Force                    Non-Local-Force
 -----------------------------------------------------------------------------------------------
   0.600E+00 0.524E+00 0.414E+01   -.595E+00 -.529E+00 -.415E+01   -.448E-02 0.562E-02 0.537E-02
   0.813E+00 0.447E+00 0.493E+01   -.811E+00 -.455E+00 -.493E+01   -.469E-02 0.117E-01 -.627E-02
   0.316E+00 0.873E+00 0.471E+01   -.325E+00 -.876E+00 -.472E+01   0.956E-02 0.169E-01 -.398E-02
   0.400E+00 0.574E+00 0.655E+01   -.401E+00 -.583E+00 -.654E+01   0.182E-01 0.142E-01 -.186E-01
   0.679E+00 0.171E+00 0.459E+01   -.669E+00 -.181E+00 -.460E+01   -.124E-01 0.902E-02 0.612E-02
   0.686E+00 -.167E+00 0.476E+01   -.687E+00 0.160E+00 -.476E+01   -.110E-01 0.145E-01 -.583E-03
   0.762E+00 0.343E+00 0.674E+01   -.764E+00 -.354E+00 -.673E+01   0.117E-01 -.336E-02 -.588E-02
   0.793E+00 -.250E+00 0.789E+01   -.798E+00 0.243E+00 -.788E+01   -.718E-02 0.859E-02 -.384E-02
   -.388E+00 0.876E+00 0.517E+01   0.379E+00 -.883E+00 -.517E+01   0.177E-01 -.904E-02 -.421E-02
   -.468E+00 0.407E+00 0.693E+01   0.460E+00 -.413E+00 -.692E+01   -.128E-01 0.227E-01 0.435E-02
   0.176E+00 -.183E+00 0.410E+01   -.171E+00 0.184E+00 -.410E+01   0.244E-02 -.437E-02 0.326E-02
   0.174E+00 -.142E+00 0.398E+01   -.181E+00 0.149E+00 -.399E+01   0.131E-02 -.710E-02 0.943E-02
   0.197E+00 -.612E+00 0.857E+01   -.200E+00 0.608E+00 -.855E+01   0.291E-01 0.172E-02 -.659E-03
   0.134E+00 -.963E+00 0.633E+01   -.137E+00 0.965E+00 -.632E+01   0.130E-02 0.738E-02 -.135E-01
   -.642E+00 0.380E+00 0.424E+01   0.645E+00 -.384E+00 -.425E+01   0.673E-02 -.135E-02 0.119E-01
   -.795E+00 0.209E+00 0.429E+01   0.795E+00 -.209E+00 -.429E+01   -.195E-02 0.655E-02 -.562E-02
   -.117E+00 -.349E-01 0.359E+01   0.116E+00 0.461E-01 -.360E+01   0.693E-02 -.180E-01 0.362E-02
   0.480E-01 0.402E+00 0.361E+01   -.546E-01 -.394E+00 -.362E+01   0.685E-02 -.125E-01 0.103E-01
   -.165E+00 -.905E+00 0.515E+01   0.169E+00 0.913E+00 -.515E+01   -.157E-02 -.969E-02 0.473E-03
   -.929E-01 -.565E+00 0.422E+01   0.101E+00 0.572E+00 -.422E+01   -.161E-01 -.949E-02 0.177E-02
   0.870E+00 -.368E+00 0.583E+01   -.868E+00 0.362E+00 -.581E+01   -.442E-02 0.768E-02 -.168E-01
   0.631E+00 -.501E+00 0.517E+01   -.635E+00 0.501E+00 -.517E+01   -.432E-02 0.661E-02 0.487E-02
   -.142E+00 0.223E+00 0.822E+01   0.130E+00 -.229E+00 -.821E+01   0.354E-04 0.219E-01 0.164E-02
   -.211E+00 -.383E+00 0.823E+01   0.211E+00 0.374E+00 -.821E+01   0.168E-01 -.638E-02 -.129E-01
   0.336E+00 -.113E+00 0.419E+01   -.338E+00 0.118E+00 -.419E+01   0.109E-01 -.105E-01 -.192E-02
   0.970E-01 0.298E+00 0.400E+01   -.109E+00 -.291E+00 -.401E+01   0.110E-01 -.513E-02 0.993E-02
   -.940E+00 0.648E-01 0.550E+01   0.939E+00 -.702E-01 -.550E+01   0.193E-01 0.117E-01 0.261E-02
   -.847E+00 -.366E+00 0.498E+01   0.849E+00 0.366E+00 -.498E+01   -.798E-02 0.779E-02 -.142E-02
   0.332E+00 -.709E+00 0.525E+01   -.331E+00 0.709E+00 -.525E+01   0.404E-02 0.164E-02 -.707E-02
   0.327E-01 -.307E+00 0.437E+01   -.342E-01 0.311E+00 -.438E+01   -.578E-02 -.111E-02 0.427E-02
   -.602E+00 -.593E+00 0.576E+01   0.600E+00 0.596E+00 -.575E+01   -.118E-01 -.985E-02 -.148E-01
   -.445E+00 -.867E+00 0.483E+01   0.453E+00 0.874E+00 -.484E+01   -.678E-02 -.117E-01 0.185E-02
   0.408E-01 0.201E+00 0.386E+01   -.275E-01 -.205E+00 -.387E+01   -.138E-01 0.120E-03 0.103E-01
   0.115E+00 0.165E+00 0.395E+01   -.109E+00 -.169E+00 -.395E+01   -.156E-01 0.134E-01 0.582E-03
   -.419E+00 0.783E-01 0.402E+01   0.428E+00 -.828E-01 -.403E+01   -.421E-02 0.241E-02 0.128E-01
   -.373E+00 -.181E+00 0.398E+01   0.372E+00 0.181E+00 -.398E+01   -.423E-02 0.136E-02 0.420E-02
   -.688E+00 -.381E+00 0.404E+01   0.691E+00 0.386E+00 -.405E+01   -.430E-03 -.971E-02 0.816E-02
   -.465E+00 -.367E+00 0.381E+01   0.465E+00 0.378E+00 -.382E+01   -.306E-02 -.148E-01 0.101E-01
   -.422E+00 -.522E+00 0.393E+01   0.425E+00 0.537E+00 -.394E+01   -.840E-02 -.178E-01 0.565E-02
   -.542E-01 -.148E+00 0.373E+01   0.612E-01 0.156E+00 -.374E+01   -.628E-02 -.132E-01 0.754E-02
   0.166E+00 0.413E+00 0.364E+01   -.167E+00 -.405E+00 -.364E+01   -.307E-02 -.898E-02 0.631E-02
   0.494E+00 0.726E+00 0.401E+01   -.493E+00 -.727E+00 -.402E+01   -.448E-03 -.612E-03 0.565E-02
   0.534E-01 0.668E+00 0.376E+01   -.609E-01 -.665E+00 -.376E+01   0.163E-01 -.761E-02 0.320E-02
   0.451E-03 0.937E+00 0.446E+01   -.115E-01 -.938E+00 -.447E+01   0.920E-02 0.171E-02 0.508E-02
   -.140E+00 0.242E+00 0.412E+01   0.135E+00 -.244E+00 -.412E+01   0.142E-01 -.443E-02 0.313E-02
   -.456E+00 0.589E+00 0.433E+01   0.448E+00 -.587E+00 -.434E+01   0.580E-02 -.828E-03 0.604E-03
   -.142E+00 -.296E+00 0.421E+01   0.150E+00 0.296E+00 -.421E+01   -.515E-02 -.295E-02 0.803E-02
   -.266E+00 0.950E-01 0.384E+01   0.273E+00 -.927E-01 -.384E+01   -.170E-01 0.238E-02 -.109E-02
   0.308E-01 -.173E+00 0.384E+01   -.212E-01 0.178E+00 -.384E+01   -.111E-01 -.111E-01 0.685E-02
   0.298E+00 0.208E+00 0.379E+01   -.289E+00 -.206E+00 -.380E+01   -.172E-01 0.249E-02 0.392E-02
   -.166E-02 0.252E-01 -.596E+02   0.516E-03 -.264E-01 0.596E+02   -.153E-01 0.140E-01 0.588E-03
   -.228E+03 0.155E+03 -.101E+03   0.279E+03 -.190E+03 0.104E+03   -.527E+02 0.359E+02 -.355E+01
   0.228E+03 -.155E+03 -.813E+02   -.279E+03 0.190E+03 0.782E+02   0.527E+02 -.359E+02 0.318E+01
 -----------------------------------------------------------------------------------------------
   -.165E-01 0.215E-01 0.326E+00   0.568E-13 0.568E-13 -.426E-13   -.828E-02 -.468E-02 -.302E+00
 
 
 POSITION                                       TOTAL-FORCE (eV/Angst)
 -----------------------------------------------------------------------------------
     11.98348      0.00342      0.01417        -0.006422      0.006128     -0.003462
     -0.34154      1.42665      0.01100        -0.013235      0.018198     -0.004612
      2.12355      0.00315      0.01249         0.009923      0.018024     -0.009300
      2.12326      1.42653      0.00641         0.027555      0.018727     -0.008889
     10.75099      2.13819      0.01213        -0.007144      0.016644     -0.000273
     -1.57382      3.56123      0.01110        -0.026131      0.013811     -0.000875
      0.89078      2.13854      0.00548         0.010578      0.008615      0.003281
      0.89099      3.56147      0.00181        -0.010526      0.009217      0.013706
      4.58864      0.00346      0.01135         0.026257     -0.018197     -0.003749
      4.58894      1.42623      0.00646         0.002267      0.028277      0.015717
      9.51854      4.27281      0.01369         0.016891      0.001251      0.001117
     -2.80632      5.69591      0.01434        -0.005796     -0.017739      0.001235
      2.12300      4.27302      0.00000         0.023622      0.015354      0.022773
      2.12335      5.69594      0.00581         0.004329      0.005338      0.000081
      7.05344      0.00333      0.01399         0.008832     -0.015566      0.000577
      7.05353      1.42635      0.01368        -0.002776      0.014089     -0.004620
      8.28610      6.40752      0.01601         0.019088     -0.021829     -0.001153
     -4.03885      7.83070      0.01636         0.007570     -0.019552     -0.001555
      3.35586      6.40753      0.01007        -0.014305     -0.010955     -0.001036
      3.35599      7.83072      0.01320        -0.018069     -0.008177     -0.000432
     -0.34146      4.27290      0.00723         0.000863      0.019488     -0.003972
     -0.34138      5.69591      0.00946        -0.012446      0.004042      0.002082
      3.35624      2.13791      0.00222        -0.006197      0.031237      0.017942
      3.35573      3.56155      0.00139         0.031783     -0.009557      0.009919
     -1.57395      6.40758      0.01311         0.025707     -0.014836     -0.000399
     -1.57385      7.83068      0.01438         0.010700     -0.002907      0.000224
      5.82093      2.13784      0.01033         0.020273      0.007299     -0.000041
      5.82114      3.56097      0.01156         0.001088      0.002300     -0.004966
      0.89092      6.40755      0.00907         0.004645      0.000364     -0.002788
      0.89106      7.83068      0.01235        -0.007279      0.008989      0.003352
      4.58871      4.27293      0.00850        -0.023945     -0.003185     -0.010159
      4.58852      5.69606      0.01149         0.001680     -0.024102     -0.003863
      9.51845      0.00337      0.01490        -0.017881     -0.006210     -0.000376
      9.51855      1.42644      0.01438        -0.031000      0.020811      0.000004
      8.28593      2.13803      0.01453         0.002445      0.000415      0.002796
      8.28613      3.56115      0.01464        -0.012472     -0.003663     -0.000737
      7.05356      4.27269      0.01457         0.003929     -0.008671      0.001299
      7.05362      5.69588      0.01553        -0.001808     -0.029604     -0.000168
      5.82112      6.40755      0.01489        -0.016084     -0.018552     -0.000696
      5.82102      7.83073      0.01579        -0.004650     -0.020657     -0.001699
      7.05363      8.54227      0.01631        -0.003105     -0.010872     -0.001011
     -5.27149      9.96549      0.01495         0.001865     -0.001199     -0.005111
     -2.80638      8.54234      0.01558         0.029711     -0.015440     -0.001896
     -2.80627      9.96553      0.01362         0.017188      0.004567     -0.005442
     -0.34149      8.54239      0.01378         0.023768     -0.017130      0.000160
     -0.34138      9.96550      0.01354         0.011501      0.010856     -0.000915
      2.12343      8.54232      0.01336        -0.012834     -0.013852      0.000861
      2.12354      9.96544      0.01469        -0.024261      0.014224     -0.001366
      4.58846      8.54235      0.01505        -0.020297     -0.016704      0.000376
      4.58853      9.96550      0.01517        -0.024850      0.007624     -0.001063
      3.04930      2.68154      8.90899        -0.031375      0.021177      0.042271
      4.02070      2.02068      8.97341        -1.668071      1.110403     -0.131914
      2.07767      3.34267      8.84953         1.678902     -1.108315      0.078766
 -----------------------------------------------------------------------------------
    total drift:                               -0.024743      0.016844      0.024019


--------------------------------------------------------------------------------------------------------



  FREE ENERGIE OF THE ION-ELECTRON SYSTEM (eV)
  ---------------------------------------------------
  free  energy   TOTEN  =      -531.06552317 eV

  energy  without entropy=     -531.06552317  energy(sigma->0) =     -531.06552317
 


--------------------------------------------------------------------------------------------------------


    POTLOK:  cpu time    1.6935: real time    1.7022


--------------------------------------------------------------------------------------------------------


 writing wavefunctions
     LOOP+:  cpu time  667.4836: real time  673.8266
    4ORBIT:  cpu time    0.0000: real time    0.0000

 total amount of memory used by VASP MPI-rank0   556209. kBytes
=======================================================================

   base      :      30000. kBytes
   nonl-proj :     184518. kBytes
   fftplans  :      31725. kBytes
   grid      :     282516. kBytes
   one-center:        162. kBytes
   wavefun   :      27288. kBytes
 
  
  
 General timing and accounting informations for this job:
 ========================================================
  
                  Total CPU time used (sec):      702.949
                            User time (sec):      683.656
                          System time (sec):       19.294
                         Elapsed time (sec):      711.230
  
                   Maximum memory used (kb):     1037420.
                   Average memory used (kb):          N/A
  
                          Minor page faults:       140641
                          Major page faults:           81
                 Voluntary context switches:         3534
