 vasp.6.2.1 16May21 (build Nov 06 2021 14:46:37) complex                        
  
 executed on             LinuxIFC date 2025.04.16  23:18:40
 running on  112 total cores
 distrk:  each k-point on   56 cores,    2 groups
 distr:  one band on NCORE=   1 cores,   56 groups


--------------------------------------------------------------------------------------------------------


 INCAR:
   ALGO = Conjugate
   KPAR = 2
   NCORE = 32
   ISMEAR = 0
   SIGMA = 0.01
   PREC = Accurate
   EDIFF = 1E-7
   ENCUT = 1000
   ISIF = 0
   METAGGA = SCAN
   LASPH = .TRUE.
   SYMPREC = 1E-7

 POTCAR:    PAW_PBE C_h 06Feb2004                 
 POTCAR:    PAW_PBE O_h 06Feb2004                 
 -----------------------------------------------------------------------------
|                                                                             |
|           W    W    AA    RRRRR   N    N  II  N    N   GGGG   !!!           |
|           W    W   A  A   R    R  NN   N  II  NN   N  G    G  !!!           |
|           W    W  A    A  R    R  N N  N  II  N N  N  G       !!!           |
|           W WW W  AAAAAA  RRRRR   N  N N  II  N  N N  G  GGG   !            |
|           WW  WW  A    A  R   R   N   NN  II  N   NN  G    G                |
|           W    W  A    A  R    R  N    N  II  N    N   GGGG   !!!           |
|                                                                             |
|     The value NCORE = 32 specified in the INCAR file was overwritten,       |
|     because it was not compatible with the 56 processes available:          |
|     NCORE = 1                                                               |
|     was used instead, please check that this makes sense for your           |
|     machine.                                                                |
|                                                                             |
 -----------------------------------------------------------------------------

 -----------------------------------------------------------------------------
|                                                                             |
|           W    W    AA    RRRRR   N    N  II  N    N   GGGG   !!!           |
|           W    W   A  A   R    R  NN   N  II  NN   N  G    G  !!!           |
|           W    W  A    A  R    R  N N  N  II  N N  N  G       !!!           |
|           W WW W  AAAAAA  RRRRR   N  N N  II  N  N N  G  GGG   !            |
|           WW  WW  A    A  R   R   N   NN  II  N   NN  G    G                |
|           W    W  A    A  R    R  N    N  II  N    N   GGGG   !!!           |
|                                                                             |
|     For optimal performance we recommend to set                             |
|       NCORE = 2 up to number-of-cores-per-socket                            |
|     NCORE specifies how many cores store one orbital (NPAR=cpu/NCORE).      |
|     This setting can greatly improve the performance of VASP for DFT.       |
|     The default, NCORE=1 might be grossly inefficient on modern             |
|     multi-core architectures or massively parallel machines. Do your        |
|     own testing! More info at https://www.vasp.at/wiki/index.php/NCORE      |
|     Unfortunately you need to use the default for GW and RPA                |
|     calculations (for HF NCORE is supported but not extensively tested      |
|     yet).                                                                   |
|                                                                             |
 -----------------------------------------------------------------------------

 POTCAR:    PAW_PBE C_h 06Feb2004                 
   VRHFIN =C: s2p2                                                                                  
   LEXCH  = PE                                                                                      
   EATOM  =   147.1560 eV,   10.8157 Ry                                                             
                                                                                                    
   TITEL  = PAW_PBE C_h 06Feb2004                                                                   
   LULTRA =        F    use ultrasoft PP ?                                                          
   IUNSCR =        1    unscreen: 0-lin 1-nonlin 2-no                                               
   RPACOR =    0.800    partial core radius                                                         
   POMASS =   12.011; ZVAL   =    4.000    mass and valenz                                          
   RCORE  =    1.100    outmost cutoff radius                                                       
   RWIGS  =    1.630; RWIGS  =    0.863    wigner-seitz radius (au A)                               
   ENMAX  =  700.000; ENMIN  =  500.000 eV                                                          
   ICORE  =        2    local potential                                                             
   LCOR   =        T    correct aug charges                                                         
   LPAW   =        T    paw PP                                                                      
   EAUG   =  946.768                                                                                
   DEXC   =    0.000                                                                                
   RMAX   =    1.128    core radius for proj-oper                                                   
   RAUG   =    1.300    factor for augmentation sphere                                              
   RDEP   =    1.162    radius for radial grids                                                     
   RDEPT  =    1.088    core radius for aug-charge                                                  
                                                                                                    
   Atomic configuration                                                                             
    4 entries                                                                                       
     n  l   j            E        occ.                                                              
     1  0  0.50      -273.3789   2.0000                                                             
     2  0  0.50       -13.7508   2.0000                                                             
     2  1  0.50        -5.2854   2.0000                                                             
     3  2  1.50        -5.4423   0.0000                                                             
   Description                                                                                      
     l       E           TYP  RCUT    TYP  RCUT                                                     
     0    -13.7508458     23  1.100                                                                 
     0     -8.2022199     23  1.100                                                                 
     1     -5.2854383     23  1.100                                                                 
     1      1.1560700     23  1.100                                                                 
     2     -5.4423304      7  1.100                                                                 
  local pseudopotential read in
  partial core-charges read in
  partial kinetic energy density read in
  atomic valenz-charges read in
  non local Contribution for L=           0  read in
    real space projection operators read in
  non local Contribution for L=           0  read in
    real space projection operators read in
  non local Contribution for L=           1  read in
    real space projection operators read in
  non local Contribution for L=           1  read in
    real space projection operators read in
    PAW grid and wavefunctions read in
 
   number of l-projection  operators is LMAX  =           4
   number of lm-projection operators is LMMAX =           8
 
 POTCAR:    PAW_PBE O_h 06Feb2004                 
   VRHFIN =O: s2p4                                                                                  
   LEXCH  = PE                                                                                      
   EATOM  =   432.3788 eV,   31.7789 Ry                                                             
                                                                                                    
   TITEL  = PAW_PBE O_h 06Feb2004                                                                   
   LULTRA =        F    use ultrasoft PP ?                                                          
   IUNSCR =        1    unscreen: 0-lin 1-nonlin 2-no                                               
   RPACOR =    0.800    partial core radius                                                         
   POMASS =   16.000; ZVAL   =    6.000    mass and valenz                                          
   RCORE  =    1.100    outmost cutoff radius                                                       
   RWIGS  =    1.400; RWIGS  =    0.741    wigner-seitz radius (au A)                               
   ENMAX  =  700.000; ENMIN  =  500.000 eV                                                          
   ICORE  =        2    local potential                                                             
   LCOR   =        T    correct aug charges                                                         
   LPAW   =        T    paw PP                                                                      
   EAUG   =  888.804                                                                                
   DEXC   =    0.000                                                                                
   RMAX   =    1.128    core radius for proj-oper                                                   
   RAUG   =    1.300    factor for augmentation sphere                                              
   RDEP   =    1.125    radius for radial grids                                                     
   RDEPT  =    1.088    core radius for aug-charge                                                  
                                                                                                    
   Atomic configuration                                                                             
    4 entries                                                                                       
     n  l   j            E        occ.                                                              
     1  0  0.50      -514.6923   2.0000                                                             
     2  0  0.50       -23.9615   2.0000                                                             
     2  1  0.50        -9.0305   4.0000                                                             
     3  2  1.50        -9.5241   0.0000                                                             
   Description                                                                                      
     l       E           TYP  RCUT    TYP  RCUT                                                     
     0    -23.9615319     23  1.100                                                                 
     0    -25.3221145     23  1.100                                                                 
     1     -9.0304911     23  1.100                                                                 
     1     -5.4802209     23  1.100                                                                 
     2     -9.5240782      7  1.100                                                                 
  local pseudopotential read in
  partial core-charges read in
  partial kinetic energy density read in
  atomic valenz-charges read in
  non local Contribution for L=           0  read in
    real space projection operators read in
  non local Contribution for L=           0  read in
    real space projection operators read in
  non local Contribution for L=           1  read in
    real space projection operators read in
  non local Contribution for L=           1  read in
    real space projection operators read in
    PAW grid and wavefunctions read in
 
   number of l-projection  operators is LMAX  =           4
   number of lm-projection operators is LMMAX =           8
 
 -----------------------------------------------------------------------------
|                                                                             |
|               ----> ADVICE to this user running VASP <----                  |
|                                                                             |
|     You have a (more or less) 'large supercell' and for larger cells it     |
|     might be more efficient to use real-space projection operators.         |
|     Therefore, try LREAL= Auto in the INCAR file.                           |
|     Mind: For very accurate calculation, you might also keep the            |
|     reciprocal projection scheme (i.e. LREAL=.FALSE.).                      |
|                                                                             |
 -----------------------------------------------------------------------------

  PAW_PBE C_h 06Feb2004                 :
 energy of atom  1       EATOM= -147.1560
 kinetic energy error for atom=    0.0031 (will be added to EATOM!!)
  PAW_PBE O_h 06Feb2004                 :
 energy of atom  2       EATOM= -432.3788
 kinetic energy error for atom=    0.0171 (will be added to EATOM!!)
 
 
 POSCAR:  C  O
  positions in cartesian coordinates
  No initial velocities read in

 METAGGA = SCAN     LMAXTAU =  6    LMIXTAU =  F

 exchange correlation table for  LEXCH =        8
   RHO(1)=    0.500       N(1)  =     2000
   RHO(2)=  100.500       N(2)  =     4000
 


--------------------------------------------------------------------------------------------------------


 ion  position               nearest neighbor table
   1  0.972  0.000  0.001-  50 1.42   2 1.42  42 1.42
   2  0.039  0.134  0.000-   5 1.42   7 1.42   1 1.42
   3  0.172  0.000  0.000-  42 1.42  44 1.42   4 1.42
   4  0.239  0.134  0.000-   7 1.42   3 1.42  23 1.42
   5  0.972  0.200  0.000-   6 1.42   2 1.42  34 1.42
   6  0.039  0.334  0.000-   5 1.42  21 1.42  11 1.42
   7  0.172  0.200  0.000-   8 1.42   2 1.42   4 1.42
   8  0.239  0.334  0.000-  13 1.42   7 1.42  21 1.42
   9  0.372  0.000  0.000-  10 1.42  44 1.42  46 1.42
  10  0.439  0.134  0.000-  27 1.42   9 1.42  23 1.42
  11  0.972  0.400  0.001-  12 1.42  36 1.42   6 1.42
  12  0.039  0.534  0.001-  25 1.42  11 1.42  17 1.42
  13  0.372  0.400  0.000-   8 1.42  14 1.42  24 1.42
  14  0.439  0.534  0.000-  13 1.42  29 1.42  19 1.42
  15  0.572  0.000  0.001-  46 1.42  16 1.42  48 1.42
  16  0.639  0.134  0.001-  15 1.42  35 1.42  27 1.42
  17  0.972  0.600  0.001-  38 1.42  18 1.42  12 1.42
  18  0.039  0.734  0.001-  43 1.42  41 1.42  17 1.42
  19  0.572  0.600  0.000-  14 1.42  20 1.42  32 1.42
  20  0.639  0.734  0.001-  49 1.42  19 1.42  47 1.42
  21  0.172  0.400  0.000-  22 1.42   8 1.42   6 1.42
  22  0.239  0.534  0.000-  21 1.42  29 1.42  25 1.42
  23  0.372  0.200  0.000-  10 1.42   4 1.42  24 1.42
  24  0.439  0.334  0.000-  13 1.42  31 1.42  23 1.42
  25  0.172  0.600  0.001-  26 1.42  12 1.42  22 1.42
  26  0.239  0.734  0.001-  25 1.42  45 1.42  43 1.42
  27  0.572  0.200  0.000-  10 1.42  28 1.42  16 1.42
  28  0.639  0.334  0.000-  27 1.42  37 1.42  31 1.42
  29  0.372  0.600  0.000-  22 1.42  14 1.42  30 1.42
  30  0.439  0.734  0.000-  47 1.42  29 1.42  45 1.42
  31  0.572  0.400  0.000-  32 1.42  28 1.42  24 1.42
  32  0.639  0.534  0.000-  31 1.42  39 1.42  19 1.42
  33  0.772  0.000  0.001-  34 1.42  48 1.42  50 1.42
  34  0.839  0.134  0.001-  33 1.42   5 1.42  35 1.42
  35  0.772  0.200  0.001-  36 1.42  16 1.42  34 1.42
  36  0.839  0.334  0.001-  35 1.42  11 1.42  37 1.42
  37  0.772  0.400  0.001-  28 1.42  38 1.42  36 1.42
  38  0.839  0.534  0.001-  17 1.42  37 1.42  39 1.42
  39  0.772  0.600  0.001-  40 1.42  38 1.42  32 1.42
  40  0.839  0.734  0.001-  39 1.42  49 1.42  41 1.42
  41  0.972  0.800  0.001-  18 1.42  42 1.42  40 1.42
  42  0.039  0.934  0.001-   3 1.42  41 1.42   1 1.42
  43  0.172  0.800  0.001-  18 1.42  44 1.42  26 1.42
  44  0.239  0.934  0.001-   9 1.42  43 1.42   3 1.42
  45  0.372  0.800  0.001-  26 1.42  46 1.42  30 1.42
  46  0.439  0.934  0.001-  15 1.42  45 1.42   9 1.42
  47  0.572  0.800  0.001-  30 1.42  48 1.42  20 1.42
  48  0.639  0.934  0.001-  47 1.42  33 1.42  15 1.42
  49  0.772  0.800  0.001-  50 1.42  20 1.42  40 1.42
  50  0.839  0.934  0.001-  49 1.42   1 1.42  33 1.42
  51  0.373  0.251  0.336-  52 1.18  53 1.18
  52  0.421  0.189  0.339-  51 1.18
  53  0.325  0.313  0.334-  51 1.18
 
  LATTYP: Found a hexagonal cell.
 ALAT       =    12.3250000000
 C/A-ratio  =     2.0283975659
  
  Lattice vectors:
  
 A1 = (  12.3250000000,   0.0000000000,   0.0000000000)
 A2 = (  -6.1625000000,  10.6737631016,   0.0000000000)
 A3 = (   0.0000000000,   0.0000000000,  25.0000000000)


Analysis of symmetry for initial positions (statically):
=====================================================================
 Subroutine PRICEL returns:
 Original cell was already a primitive cell.
 

 Routine SETGRP: Setting up the symmetry group for a 
 hexagonal supercell.


 Subroutine GETGRP returns: Found  1 space group operations
 (whereof  1 operations were pure point group operations)
 out of a pool of 24 trial point group operations.


The static configuration has the point symmetry C_1 .


Analysis of symmetry for dynamics (positions and initial velocities):
=====================================================================
 Subroutine PRICEL returns:
 Original cell was already a primitive cell.
 

 Routine SETGRP: Setting up the symmetry group for a 
 hexagonal supercell.


 Subroutine GETGRP returns: Found  1 space group operations
 (whereof  1 operations were pure point group operations)
 out of a pool of 24 trial point group operations.


The dynamic configuration has the point symmetry C_1 .


 Subroutine INISYM returns: Found  1 space group operations
 (whereof  1 operations are pure point group operations),
 and found     1 'primitive' translations


----------------------------------------------------------------------------------------

                                     Primitive cell                                     

  volume of cell :    3288.8533

  direct lattice vectors                    reciprocal lattice vectors
    12.325000000  0.000000000  0.000000000     0.081135903  0.046843835  0.000000000
    -6.162500000 10.673763102  0.000000000     0.000000000  0.093687670  0.000000000
     0.000000000  0.000000000 25.000000000     0.000000000  0.000000000  0.040000000

  length of vectors
    12.325000000 12.325000000 25.000000000     0.093687670  0.093687670  0.040000000

  position of ions in fractional coordinates (direct lattice)
     0.972450841  0.000320818  0.000566711
     0.039118382  0.133659505  0.000440173
     0.172443627  0.000295449  0.000499628
     0.239096278  0.133647917  0.000256468
     0.972452058  0.200322012  0.000485219
     0.039128360  0.333643771  0.000444150
     0.172451764  0.200354552  0.000219167
     0.239124359  0.333665720  0.000072260
     0.372465565  0.000324403  0.000453913
     0.439137473  0.133619939  0.000258338
     0.972449824  0.400309362  0.000547611
     0.039124981  0.533636789  0.000573410
     0.372416176  0.400329481  0.000000000
     0.439099602  0.533638981  0.000232414
     0.572443676  0.000312125  0.000559580
     0.639110207  0.133631751  0.000547275
     0.972452703  0.600305653  0.000640289
     0.039124495  0.733640359  0.000654513
     0.572433471  0.600306242  0.000402895
     0.639111888  0.733641879  0.000527905
     0.172454630  0.400318228  0.000289045
     0.239120185  0.533636548  0.000378509
     0.372459750  0.200295993  0.000088997
     0.439107096  0.333673419  0.000055762
     0.172452155  0.600311506  0.000524340
     0.239123371  0.733638574  0.000575129
     0.572431082  0.200289171  0.000413296
     0.639112773  0.333618630  0.000462376
     0.372439808  0.600308022  0.000362844
     0.439116090  0.733637858  0.000494190
     0.572469358  0.400320504  0.000339918
     0.639119408  0.533650873  0.000459610
     0.772445723  0.000315427  0.000596161
     0.839116277  0.133640203  0.000575306
     0.772440513  0.200307432  0.000581033
     0.839120241  0.333635728  0.000585467
     0.772446320  0.400298367  0.000582978
     0.839118980  0.533633964  0.000621100
     0.772456143  0.600308173  0.000595712
     0.839115033  0.733643180  0.000631512
     0.972455313  0.800305582  0.000652233
     0.039114714  0.933643289  0.000598051
     0.172457971  0.800312211  0.000623372
     0.239134551  0.933647193  0.000544850
     0.372451396  0.800316674  0.000551399
     0.439124489  0.933644769  0.000541430
     0.572441101  0.800310054  0.000534535
     0.639115067  0.933638985  0.000587644
     0.772445098  0.800313187  0.000602062
     0.839116614  0.933644338  0.000606830
     0.373021009  0.251226878  0.336358566
     0.420879805  0.189313152  0.338935440
     0.325156981  0.313167186  0.333980371

  ion indices of the primitive-cell ions
   primitive index   ion index
                 1           1
                 2           2
                 3           3
                 4           4
                 5           5
                 6           6
                 7           7
                 8           8
                 9           9
                10          10
                11          11
                12          12
                13          13
                14          14
                15          15
                16          16
                17          17
                18          18
                19          19
                20          20
                21          21
                22          22
                23          23
                24          24
                25          25
                26          26
                27          27
                28          28
                29          29
                30          30
                31          31
                32          32
                33          33
                34          34
                35          35
                36          36
                37          37
                38          38
                39          39
                40          40
                41          41
                42          42
                43          43
                44          44
                45          45
                46          46
                47          47
                48          48
                49          49
                50          50
                51          51
                52          52
                53          53

----------------------------------------------------------------------------------------

 
 
 KPOINTS: auto                                    

Automatic generation of k-mesh.
 Grid dimensions read from file:
 generate k-points for:    1    1    1

 Generating k-lattice:

  Cartesian coordinates                     Fractional coordinates (reciprocal lattice)
     0.081135903  0.046843835  0.000000000     1.000000000 -0.000000000  0.000000000
     0.000000000  0.093687670  0.000000000     0.000000000  1.000000000  0.000000000
     0.000000000  0.000000000  0.040000000     0.000000000  0.000000000  1.000000000

  Length of vectors
     0.093687670  0.093687670  0.040000000

  Shift w.r.t. Gamma in fractional coordinates (k-lattice)
     0.000000000  0.000000000  0.000000000

 
 Subroutine IBZKPT returns following result:
 ===========================================
 
 Found      1 irreducible k-points:
 
 Following reciprocal coordinates:
            Coordinates               Weight
  0.000000  0.000000  0.000000      1.000000
 
 Following cartesian coordinates:
            Coordinates               Weight
  0.000000  0.000000  0.000000      1.000000
 


--------------------------------------------------------------------------------------------------------




 Dimension of arrays:
   k-points           NKPTS =      1   k-points in BZ     NKDIM =      1   number of bands    NBANDS=    168
   number of dos      NEDOS =    301   number of ions     NIONS =     53
   non local maximal  LDIM  =      4   non local SUM 2l+1 LMDIM =      8
   total plane-waves  NPLWV = ******
   max r-space proj   IRMAX =      1   max aug-charges    IRDMAX=  10008
   dimension x,y,z NGX =   128 NGY =  128 NGZ =  270
   dimension x,y,z NGXF=   256 NGYF=  256 NGZF=  540
   support grid    NGXF=   256 NGYF=  256 NGZF=  540
   ions per type =              51   2
   NGX,Y,Z   is equivalent  to a cutoff of  17.27, 17.27, 17.95 a.u.
   NGXF,Y,Z  is equivalent  to a cutoff of  34.53, 34.53, 35.91 a.u.

 SYSTEM =  unknown system                          
 POSCAR =   C  O                                   

 Startparameter for this run:
   NWRITE =      2    write-flag & timer
   PREC   = accura    normal or accurate (medium, high low for compatibility)
   ISTART =      0    job   : 0-new  1-cont  2-samecut
   ICHARG =      2    charge: 1-file 2-atom 10-const
   ISPIN  =      1    spin polarized calculation?
   LNONCOLLINEAR =      F non collinear calculations
   LSORBIT =      F    spin-orbit coupling
   INIWAV =      1    electr: 0-lowe 1-rand  2-diag
   LASPH  =      T    aspherical Exc in radial PAW
 Electronic Relaxation 1
   ENCUT  = 1000.0 eV  73.50 Ry    8.57 a.u.  31.78 31.78 64.46*2*pi/ulx,y,z
   ENINI  = 1000.0     initial cutoff
   ENAUG  =  946.8 eV  augmentation charge cutoff
   NELM   =     60;   NELMIN=  2; NELMDL= -5     # of ELM steps 
   EDIFF  = 0.1E-06   stopping-criterion for ELM
   LREAL  =      F    real-space projection
   NLSPLINE    = F    spline interpolate recip. space projectors
   LCOMPAT=      F    compatible to vasp.4.4
   GGA_COMPAT  = T    GGA compatible to vasp.4.4-vasp.4.6
   LMAXPAW     = -100 max onsite density
   LMAXMIX     =    2 max onsite mixed and CHGCAR
   VOSKOWN=      0    Vosko Wilk Nusair interpolation
   ROPT   =    0.00000   0.00000
 Ionic relaxation
   EDIFFG = 0.1E-05   stopping-criterion for IOM
   NSW    =      0    number of steps for IOM
   NBLOCK =      1;   KBLOCK =      1    inner block; outer block 
   IBRION =     -1    ionic relax: 0-MD 1-quasi-New 2-CG
   NFREE  =      0    steps in history (QN), initial steepest desc. (CG)
   ISIF   =      0    stress and relaxation
   IWAVPR =     10    prediction:  0-non 1-charg 2-wave 3-comb
   ISYM   =      2    0-nonsym 1-usesym 2-fastsym
   LCORR  =      T    Harris-Foulkes like correction to forces

   POTIM  = 0.5000    time-step for ionic-motion
   TEIN   =    0.0    initial temperature
   TEBEG  =    0.0;   TEEND  =   0.0 temperature during run
   SMASS  =  -3.00    Nose mass-parameter (am)
   estimated Nose-frequenzy (Omega)   =  0.10E-29 period in steps = 0.13E+47 mass=  -0.347E-26a.u.
   SCALEE = 1.0000    scale energy and forces
   NPACO  =    256;   APACO  = 16.0  distance and # of slots for P.C.
   PSTRESS=    0.0 pullay stress

  Mass of Ions in am
   POMASS =  12.01 16.00
  Ionic Valenz
   ZVAL   =   4.00  6.00
  Atomic Wigner-Seitz radii
   RWIGS  =  -1.00 -1.00
  virtual crystal weights 
   VCA    =   1.00  1.00
   NELECT =     216.0000    total number of electrons
   NUPDOWN=      -1.0000    fix difference up-down

 DOS related values:
   EMIN   =  10.00;   EMAX   =-10.00  energy-range for DOS
   EFERMI =   0.00
   ISMEAR =     0;   SIGMA  =   0.01  broadening in eV -4-tet -1-fermi 0-gaus

 Electronic relaxation 2 (details)
   IALGO  =     58    algorithm
   LDIAG  =      T    sub-space diagonalisation (order eigenvalues)
   LSUBROT=      F    optimize rotation matrix (better conditioning)
   TURBO    =      0    0=normal 1=particle mesh
   IRESTART =      0    0=no restart 2=restart with 2 vectors
   NREBOOT  =      0    no. of reboots
   NMIN     =      0    reboot dimension
   EREF     =   0.00    reference energy to select bands
   IMIX   =      4    mixing-type and parameters
     AMIX     =   0.40;   BMIX     =  1.00
     AMIX_MAG =   1.60;   BMIX_MAG =  1.00
     AMIN     =   0.10
     WC   =   100.;   INIMIX=   1;  MIXPRE=   1;  MAXMIX= -45

 Intra band minimization:
   WEIMIN = 0.0000     energy-eigenvalue tresh-hold
   EBREAK =  0.15E-09  absolut break condition
   DEPER  =   0.30     relativ break condition  

   TIME   =   0.40     timestep for ELM

  volume/ion in A,a.u.               =      62.05       418.76
  Fermi-wavevector in a.u.,A,eV,Ry     =   0.660508  1.248179  5.935820  0.436270
  Thomas-Fermi vector in A             =   1.732977
 
 Write flags
   LWAVE        =      T    write WAVECAR
   LDOWNSAMPLE  =      F    k-point downsampling of WAVECAR
   LCHARG       =      T    write CHGCAR
   LVTOT        =      F    write LOCPOT, total local potential
   LVHAR        =      F    write LOCPOT, Hartree potential only
   LELF         =      F    write electronic localiz. function (ELF)
   LORBIT       =      0    0 simple, 1 ext, 2 COOP (PROOUT), +10 PAW based schemes


 Dipole corrections
   LMONO  =      F    monopole corrections only (constant potential shift)
   LDIPOL =      F    correct potential (dipole corrections)
   IDIPOL =      0    1-x, 2-y, 3-z, 4-all directions 
   EPSILON=  1.0000000 bulk dielectric constant

 Exchange correlation treatment:
   GGA     =    --    GGA type
   LEXCH   =     8    internal setting for exchange type
   VOSKOWN=      0    Vosko Wilk Nusair interpolation
   LHFCALC =     F    Hartree Fock is set to
   LHFONE  =     F    Hartree Fock one center treatment
   AEXX    =    0.0000 exact exchange contribution

 Linear response parameters
   LEPSILON=     F    determine dielectric tensor
   LRPA    =     F    only Hartree local field effects (RPA)
   LNABLA  =     F    use nabla operator in PAW spheres
   LVEL    =     F    velocity operator in full k-point grid
   LINTERFAST=   F  fast interpolation
   KINTER  =     0    interpolate to denser k-point grid
   CSHIFT  =0.1000    complex shift for real part using Kramers Kronig
   OMEGAMAX=  -1.0    maximum frequency
   DEG_THRESHOLD= 0.2000000E-02 threshold for treating states as degnerate
   RTIME   =   -0.100 relaxation time in fs
  (WPLASMAI=    0.000 imaginary part of plasma frequency in eV, 0.658/RTIME)
   DFIELD  = 0.0000000 0.0000000 0.0000000 field for delta impulse in time
 
 Orbital magnetization related:
   ORBITALMAG=     F  switch on orbital magnetization
   LCHIMAG   =     F  perturbation theory with respect to B field
   DQ        =  0.001000  dq finite difference perturbation B field
   LLRAUG    =     F  two centre corrections for induced B field



--------------------------------------------------------------------------------------------------------


 Static calculation
 charge density and potential will be updated during run
 non-spin polarized calculation
 Conjugate gradient for all bands (Freysoldt, et al. PRB 79, 241103 (2009))
 preconditioned conjugated gradient                                        
 perform sub-space diagonalisation
    before iterative eigenvector-optimisation
 modified Broyden-mixing scheme, WC =      100.0
 initial mixing is a Kerker type mixing with AMIX =  0.4000 and BMIX =      1.0000
 Hartree-type preconditioning will be used
 using additional bands           60
 reciprocal scheme for non local part
 use partial core corrections
 no Harris-corrections to forces 
 use gradient corrections 
 use of overlap-Matrix (Vanderbilt PP)
 Gauss-broadening in eV      SIGMA  =   0.01


--------------------------------------------------------------------------------------------------------


  energy-cutoff  :     1000.00
  volume of cell :     3288.85
      direct lattice vectors                 reciprocal lattice vectors
    12.325000000  0.000000000  0.000000000     0.081135903  0.046843835  0.000000000
    -6.162500000 10.673763102  0.000000000     0.000000000  0.093687670  0.000000000
     0.000000000  0.000000000 25.000000000     0.000000000  0.000000000  0.040000000

  length of vectors
    12.325000000 12.325000000 25.000000000     0.093687670  0.093687670  0.040000000


 
 k-points in units of 2pi/SCALE and weight: auto                                    
   0.00000000  0.00000000  0.00000000       1.000
 
 k-points in reciprocal lattice and weights: auto                                    
   0.00000000  0.00000000  0.00000000       1.000
 
 position of ions in fractional coordinates (direct lattice) 
   0.97245084  0.00032082  0.00056671
   0.03911838  0.13365950  0.00044017
   0.17244363  0.00029545  0.00049963
   0.23909628  0.13364792  0.00025647
   0.97245206  0.20032201  0.00048522
   0.03912836  0.33364377  0.00044415
   0.17245176  0.20035455  0.00021917
   0.23912436  0.33366572  0.00007226
   0.37246557  0.00032440  0.00045391
   0.43913747  0.13361994  0.00025834
   0.97244982  0.40030936  0.00054761
   0.03912498  0.53363679  0.00057341
   0.37241618  0.40032948  0.00000000
   0.43909960  0.53363898  0.00023241
   0.57244368  0.00031213  0.00055958
   0.63911021  0.13363175  0.00054727
   0.97245270  0.60030565  0.00064029
   0.03912449  0.73364036  0.00065451
   0.57243347  0.60030624  0.00040289
   0.63911189  0.73364188  0.00052791
   0.17245463  0.40031823  0.00028904
   0.23912018  0.53363655  0.00037851
   0.37245975  0.20029599  0.00008900
   0.43910710  0.33367342  0.00005576
   0.17245216  0.60031151  0.00052434
   0.23912337  0.73363857  0.00057513
   0.57243108  0.20028917  0.00041330
   0.63911277  0.33361863  0.00046238
   0.37243981  0.60030802  0.00036284
   0.43911609  0.73363786  0.00049419
   0.57246936  0.40032050  0.00033992
   0.63911941  0.53365087  0.00045961
   0.77244572  0.00031543  0.00059616
   0.83911628  0.13364020  0.00057531
   0.77244051  0.20030743  0.00058103
   0.83912024  0.33363573  0.00058547
   0.77244632  0.40029837  0.00058298
   0.83911898  0.53363396  0.00062110
   0.77245614  0.60030817  0.00059571
   0.83911503  0.73364318  0.00063151
   0.97245531  0.80030558  0.00065223
   0.03911471  0.93364329  0.00059805
   0.17245797  0.80031221  0.00062337
   0.23913455  0.93364719  0.00054485
   0.37245140  0.80031667  0.00055140
   0.43912449  0.93364477  0.00054143
   0.57244110  0.80031005  0.00053453
   0.63911507  0.93363899  0.00058764
   0.77244510  0.80031319  0.00060206
   0.83911661  0.93364434  0.00060683
   0.37302101  0.25122688  0.33635857
   0.42087980  0.18931315  0.33893544
   0.32515698  0.31316719  0.33398037
 
 position of ions in cartesian coordinates  (Angst):
  11.98347958  0.00342433  0.01416777
  -0.34154264  1.42664989  0.01100432
   2.12354700  0.00315355  0.01249070
   2.12325634  1.42652621  0.00641170
  10.75098721  2.13818970  0.01213047
  -1.57382270  3.56123457  0.01110375
   0.89078307  2.13853702  0.00547917
   0.89099273  3.56146885  0.00180651
   4.58863896  0.00346260  0.01134782
   4.58893648  1.42622757  0.00645846
   9.51853763  4.27280730  0.01369027
  -2.80632132  5.69591267  0.01433526
   2.12299894  4.27302204  0.00000000
   2.12335237  5.69593607  0.00581036
   7.05344483  0.00333155  0.01398950
   7.05352764  1.42635365  0.01368187
   8.28609598  6.40752033  0.01600723
  -4.03884931  7.83070339  0.01636283
   3.35585531  6.40752662  0.01007237
   3.35598594  7.83071962  0.01319763
  -0.34145776  4.27290193  0.00722612
  -0.34137895  5.69591010  0.00946273
   3.35624236  2.13791198  0.00222492
   3.35573251  3.56155103  0.00139405
  -1.57394684  6.40758280  0.01310850
  -1.57385216  7.83068434  0.01437823
   5.82093107  2.13783916  0.01033241
   5.82114012  3.56096622  0.01155939
   0.89092245  6.40754561  0.00907111
   0.89106251  7.83067670  0.01235474
   4.58870974  4.27292622  0.00849795
   4.58852320  5.69606300  0.01149026
   9.51844972  0.00336679  0.01490402
   9.51855036  1.42644387  0.01438264
   8.28593477  2.13803408  0.01452582
   8.28612680  3.56114872  0.01463668
   7.05356221  4.27268994  0.01457444
   7.05362213  5.69588251  0.01552751
   5.82112285  6.40754723  0.01489279
   5.82101669  7.83073350  0.01578780
   7.05362858  8.54227219  0.01630582
  -5.27148792  9.96548729  0.01495127
  -2.80637951  8.54234295  0.01558431
  -2.80626749  9.96552896  0.01362126
  -0.34148805  8.54239058  0.01378498
  -0.34137657  9.96550309  0.01353576
   2.12342586  8.54231992  0.01336337
   2.12354296  9.96544135  0.01469111
   4.58845581  8.54235337  0.01505154
   4.58852904  9.96549848  0.01517076
   3.04929830  2.68153618  8.40896415
   4.02070129  2.02068374  8.47338601
   2.07766701  3.34267235  8.34950928
 


--------------------------------------------------------------------------------------------------------


 k-point   1 :   0.0000 0.0000 0.0000  plane waves:  236157

 maximum and minimum number of plane-waves per node :    236157   236157

 maximum number of plane-waves:    236157
 maximum index in each direction: 
   IXMAX=   31   IYMAX=   31   IZMAX=   64
   IXMIN=  -31   IYMIN=  -31   IZMIN=  -64


 serial   3D FFT for wavefunctions
 parallel 3D FFT for charge:
    minimum data exchange during FFTs selected (reduces bandwidth)


 total amount of memory used by VASP MPI-rank0   698619. kBytes
=======================================================================

   base      :      30000. kBytes
   nonl-proj :     230539. kBytes
   fftplans  :      40716. kBytes
   grid      :     363125. kBytes
   one-center:        162. kBytes
   wavefun   :      34077. kBytes
 
     INWAV:  cpu time    0.0000: real time    0.0000
 Broyden mixing: mesh for mixing (old mesh)
   NGX = 63   NGY = 63   NGZ =129
  (NGX  =256   NGY  =256   NGZ  =540)
  gives a total of 512001 points

 initial charge density was supplied:
 charge density of overlapping atoms calculated
 number of electron     216.0000000 magnetization 
 keeping initial charge density in first step


--------------------------------------------------------------------------------------------------------


 Maximum index for augmentation-charges          471 (set IRDMAX)


--------------------------------------------------------------------------------------------------------


 First call to EWALD:  gamma=   0.119
 Maximum number of real-space cells 4x 4x 2
 Maximum number of reciprocal cells 2x 2x 4

    FEWALD:  cpu time    0.0021: real time    0.0022


--------------------------------------- Iteration      1(   1)  ---------------------------------------


    POTLOK:  cpu time    1.9699: real time    1.9818
    SETDIJ:  cpu time    0.2506: real time    0.2515
    TRIAL :  cpu time   28.0184: real time   28.2438
    CORREC:  cpu time    0.0006: real time    0.0006
    --------------------------------------------
      LOOP:  cpu time   30.2525: real time   30.5008

 eigenvalue-minimisations  :   336
 total energy-change (2. order) : 0.2539544E+04  (-0.1080469E+05)
 number of electron     216.0000000 magnetization 
 augmentation part      216.0000000 magnetization 

 Free energy of the ion-electron system (eV)
  ---------------------------------------------------
  alpha Z        PSCENC =        47.94900195
  Ewald energy   TEWEN  =     41309.03722986
  -Hartree energ DENC   =    -47378.26075386
  -exchange      EXHF   =         0.00000000
  -V(xc)+E(xc)   XCENC  =       602.80416799
  PAW double counting   =      6339.73130699    -6197.22120962
  entropy T*S    EENTRO =        -0.00000000
  eigenvalues    EBANDS =      -554.01891428
  atomic energy  EATOM  =      8369.52358910
  ---------------------------------------------------
  free energy    TOTEN  =      2539.54441813 eV

  energy without entropy =     2539.54441813  energy(sigma->0) =     2539.54441813


--------------------------------------------------------------------------------------------------------




--------------------------------------- Iteration      1(   2)  ---------------------------------------


    TRIAL :  cpu time   45.6582: real time   46.0138
    CORREC:  cpu time    0.0001: real time    0.0001
    --------------------------------------------
      LOOP:  cpu time   45.6634: real time   46.0246

 eigenvalue-minimisations  :   672
 total energy-change (2. order) :-0.2539057E+04  (-0.2416698E+04)
 number of electron     216.0000000 magnetization 
 augmentation part      216.0000000 magnetization 

 Free energy of the ion-electron system (eV)
  ---------------------------------------------------
  alpha Z        PSCENC =        47.94900195
  Ewald energy   TEWEN  =     41309.03722986
  -Hartree energ DENC   =    -47378.26075386
  -exchange      EXHF   =         0.00000000
  -V(xc)+E(xc)   XCENC  =       602.80416799
  PAW double counting   =      6339.73130699    -6197.22120962
  entropy T*S    EENTRO =        -0.00000000
  eigenvalues    EBANDS =     -3093.07629349
  atomic energy  EATOM  =      8369.52358910
  ---------------------------------------------------
  free energy    TOTEN  =         0.48703892 eV

  energy without entropy =        0.48703892  energy(sigma->0) =        0.48703892


--------------------------------------------------------------------------------------------------------




--------------------------------------- Iteration      1(   3)  ---------------------------------------


    TRIAL :  cpu time   30.8073: real time   31.1216
    CORREC:  cpu time    0.0001: real time    0.0001
    --------------------------------------------
      LOOP:  cpu time   30.8467: real time   31.1630

 eigenvalue-minimisations  :   392
 total energy-change (2. order) :-0.5899132E+03  (-0.5871897E+03)
 number of electron     216.0000000 magnetization 
 augmentation part      216.0000000 magnetization 

 Free energy of the ion-electron system (eV)
  ---------------------------------------------------
  alpha Z        PSCENC =        47.94900195
  Ewald energy   TEWEN  =     41309.03722986
  -Hartree energ DENC   =    -47378.26075386
  -exchange      EXHF   =         0.00000000
  -V(xc)+E(xc)   XCENC  =       602.80416799
  PAW double counting   =      6339.73130699    -6197.22120962
  entropy T*S    EENTRO =        -0.00000000
  eigenvalues    EBANDS =     -3682.98944479
  atomic energy  EATOM  =      8369.52358910
  ---------------------------------------------------
  free energy    TOTEN  =      -589.42611238 eV

  energy without entropy =     -589.42611238  energy(sigma->0) =     -589.42611238


--------------------------------------------------------------------------------------------------------




--------------------------------------- Iteration      1(   4)  ---------------------------------------


    TRIAL :  cpu time   33.8567: real time   34.1187
    CORREC:  cpu time    0.0001: real time    0.0001
    --------------------------------------------
      LOOP:  cpu time   33.8938: real time   34.1591

 eigenvalue-minimisations  :   448
 total energy-change (2. order) :-0.3018710E+02  (-0.2995248E+02)
 number of electron     216.0000000 magnetization 
 augmentation part      216.0000000 magnetization 

 Free energy of the ion-electron system (eV)
  ---------------------------------------------------
  alpha Z        PSCENC =        47.94900195
  Ewald energy   TEWEN  =     41309.03722986
  -Hartree energ DENC   =    -47378.26075386
  -exchange      EXHF   =         0.00000000
  -V(xc)+E(xc)   XCENC  =       602.80416799
  PAW double counting   =      6339.73130699    -6197.22120962
  entropy T*S    EENTRO =        -0.00000000
  eigenvalues    EBANDS =     -3713.17654929
  atomic energy  EATOM  =      8369.52358910
  ---------------------------------------------------
  free energy    TOTEN  =      -619.61321688 eV

  energy without entropy =     -619.61321688  energy(sigma->0) =     -619.61321688


--------------------------------------------------------------------------------------------------------




--------------------------------------- Iteration      1(   5)  ---------------------------------------


    TRIAL :  cpu time   33.7752: real time   34.0990
    CORREC:  cpu time    0.0001: real time    0.0001
    CHARGE:  cpu time    2.9900: real time    3.0113
    --------------------------------------------
      LOOP:  cpu time   36.8031: real time   37.1536

 eigenvalue-minimisations  :   448
 total energy-change (2. order) :-0.1034156E+01  (-0.1029325E+01)
 number of electron     216.0000000 magnetization 
 augmentation part       -0.4310518 magnetization 

 Free energy of the ion-electron system (eV)
  ---------------------------------------------------
  alpha Z        PSCENC =        47.94900195
  Ewald energy   TEWEN  =     41309.03722986
  -Hartree energ DENC   =    -47378.26075386
  -exchange      EXHF   =         0.00000000
  -V(xc)+E(xc)   XCENC  =       602.80416799
  PAW double counting   =      6339.73130699    -6197.22120962
  entropy T*S    EENTRO =        -0.00000000
  eigenvalues    EBANDS =     -3714.21070537
  atomic energy  EATOM  =      8369.52358910
  ---------------------------------------------------
  free energy    TOTEN  =      -620.64737295 eV

  energy without entropy =     -620.64737295  energy(sigma->0) =     -620.64737295


--------------------------------------------------------------------------------------------------------




--------------------------------------- Iteration      1(   6)  ---------------------------------------


    POTLOK:  cpu time    1.9352: real time    1.9458
    SETDIJ:  cpu time    0.2502: real time    0.2512
    TRIAL :  cpu time   19.9892: real time   20.1449
    CORREC:  cpu time    9.2470: real time    9.3096
    CHARGE:  cpu time    2.9831: real time    3.0046
    --------------------------------------------
      LOOP:  cpu time   34.4696: real time   34.7270

 eigenvalue-minimisations  :     0
 total energy-change (2. order) : 0.1041062E+03  (-0.1211839E+02)
 number of electron     216.0000000 magnetization 
 augmentation part       -0.4875234 magnetization 

 Free energy of the ion-electron system (eV)
  ---------------------------------------------------
  alpha Z        PSCENC =        47.94900195
  Ewald energy   TEWEN  =     41309.03722986
  -Hartree energ DENC   =    -48738.60057745
  -exchange      EXHF   =         0.00000000
  -V(xc)+E(xc)   XCENC  =       669.74325282
  PAW double counting   =    113823.43529967  -113686.66237590
  entropy T*S    EENTRO =        -0.00000000
  eigenvalues    EBANDS =     -2310.96659754
  atomic energy  EATOM  =      8369.52358910
  ---------------------------------------------------
  free energy    TOTEN  =      -516.54117750 eV

  energy without entropy =     -516.54117750  energy(sigma->0) =     -516.54117750


--------------------------------------------------------------------------------------------------------




--------------------------------------- Iteration      1(   7)  ---------------------------------------


    POTLOK:  cpu time    1.9224: real time    1.9325
    SETDIJ:  cpu time    0.2641: real time    0.2651
    TRIAL :  cpu time   19.9602: real time   20.1576
    CORREC:  cpu time    9.2465: real time    9.3132
    CHARGE:  cpu time    2.9837: real time    3.0048
    --------------------------------------------
      LOOP:  cpu time   34.4143: real time   34.7533

 eigenvalue-minimisations  :     0
 total energy-change (2. order) :-0.1213543E+02  (-0.1572501E+01)
 number of electron     216.0000000 magnetization 
 augmentation part       -0.5185417 magnetization 

 Free energy of the ion-electron system (eV)
  ---------------------------------------------------
  alpha Z        PSCENC =        47.94900195
  Ewald energy   TEWEN  =     41309.03722986
  -Hartree energ DENC   =    -48309.33484667
  -exchange      EXHF   =         0.00000000
  -V(xc)+E(xc)   XCENC  =       649.78040569
  PAW double counting   =    131865.25981222  -131725.73392984
  entropy T*S    EENTRO =        -0.00000000
  eigenvalues    EBANDS =     -2735.15787266
  atomic energy  EATOM  =      8369.52358910
  ---------------------------------------------------
  free energy    TOTEN  =      -528.67661035 eV

  energy without entropy =     -528.67661035  energy(sigma->0) =     -528.67661035


--------------------------------------------------------------------------------------------------------




--------------------------------------- Iteration      1(   8)  ---------------------------------------


    POTLOK:  cpu time    1.9211: real time    1.9371
    SETDIJ:  cpu time    0.2515: real time    0.2523
    TRIAL :  cpu time   19.9999: real time   20.1603
    CORREC:  cpu time    9.2407: real time    9.3124
    CHARGE:  cpu time    2.9795: real time    3.0071
    --------------------------------------------
      LOOP:  cpu time   34.4337: real time   34.7381

 eigenvalue-minimisations  :     0
 total energy-change (2. order) :-0.1572360E+01  (-0.4999417E+00)
 number of electron     216.0000000 magnetization 
 augmentation part       -0.5178634 magnetization 

 Free energy of the ion-electron system (eV)
  ---------------------------------------------------
  alpha Z        PSCENC =        47.94900195
  Ewald energy   TEWEN  =     41309.03722986
  -Hartree energ DENC   =    -48279.74761313
  -exchange      EXHF   =         0.00000000
  -V(xc)+E(xc)   XCENC  =       648.24559517
  PAW double counting   =    139854.10310950  -139714.09941509
  entropy T*S    EENTRO =        -0.00000000
  eigenvalues    EBANDS =     -2765.26046754
  atomic energy  EATOM  =      8369.52358910
  ---------------------------------------------------
  free energy    TOTEN  =      -530.24897018 eV

  energy without entropy =     -530.24897018  energy(sigma->0) =     -530.24897018


--------------------------------------------------------------------------------------------------------




--------------------------------------- Iteration      1(   9)  ---------------------------------------


    POTLOK:  cpu time    1.9197: real time    1.9357
    SETDIJ:  cpu time    0.2542: real time    0.2550
    TRIAL :  cpu time   20.0189: real time   20.1633
    CORREC:  cpu time    9.2362: real time    9.3215
    CHARGE:  cpu time    2.9842: real time    3.0070
    --------------------------------------------
      LOOP:  cpu time   34.4652: real time   34.7371

 eigenvalue-minimisations  :     0
 total energy-change (2. order) :-0.4998398E+00  (-0.1926123E+00)
 number of electron     216.0000000 magnetization 
 augmentation part       -0.5135422 magnetization 

 Free energy of the ion-electron system (eV)
  ---------------------------------------------------
  alpha Z        PSCENC =        47.94900195
  Ewald energy   TEWEN  =     41309.03722986
  -Hartree energ DENC   =    -48288.46273512
  -exchange      EXHF   =         0.00000000
  -V(xc)+E(xc)   XCENC  =       648.04001028
  PAW double counting   =    145980.01496674  -145839.81920956
  entropy T*S    EENTRO =        -0.00000000
  eigenvalues    EBANDS =     -2757.03166324
  atomic energy  EATOM  =      8369.52358910
  ---------------------------------------------------
  free energy    TOTEN  =      -530.74880999 eV

  energy without entropy =     -530.74880999  energy(sigma->0) =     -530.74880999


--------------------------------------------------------------------------------------------------------




--------------------------------------- Iteration      1(  10)  ---------------------------------------


    POTLOK:  cpu time    1.9324: real time    1.9426
    SETDIJ:  cpu time    0.2551: real time    0.2559
    TRIAL :  cpu time   20.0089: real time   20.1572
    CORREC:  cpu time    9.2463: real time    9.3164
    CHARGE:  cpu time    2.9861: real time    3.0103
    --------------------------------------------
      LOOP:  cpu time   34.4402: real time   34.7440

 eigenvalue-minimisations  :     0
 total energy-change (2. order) :-0.1923990E+00  (-0.8014689E-01)
 number of electron     216.0000000 magnetization 
 augmentation part       -0.5075928 magnetization 

 Free energy of the ion-electron system (eV)
  ---------------------------------------------------
  alpha Z        PSCENC =        47.94900195
  Ewald energy   TEWEN  =     41309.03722986
  -Hartree energ DENC   =    -48288.72752752
  -exchange      EXHF   =         0.00000000
  -V(xc)+E(xc)   XCENC  =       647.84569090
  PAW double counting   =    148484.21088107  -148343.91721231
  entropy T*S    EENTRO =        -0.00000000
  eigenvalues    EBANDS =     -2756.86286206
  atomic energy  EATOM  =      8369.52358910
  ---------------------------------------------------
  free energy    TOTEN  =      -530.94120901 eV

  energy without entropy =     -530.94120901  energy(sigma->0) =     -530.94120901


--------------------------------------------------------------------------------------------------------




--------------------------------------- Iteration      1(  11)  ---------------------------------------


    POTLOK:  cpu time    1.9321: real time    1.9444
    SETDIJ:  cpu time    0.2524: real time    0.2532
    TRIAL :  cpu time   19.9812: real time   20.1571
    CORREC:  cpu time    9.2505: real time    9.3150
    CHARGE:  cpu time    2.9860: real time    3.0069
    --------------------------------------------
      LOOP:  cpu time   34.5147: real time   34.7899

 eigenvalue-minimisations  :     0
 total energy-change (2. order) :-0.7995008E-01  (-0.3146424E-01)
 number of electron     216.0000000 magnetization 
 augmentation part       -0.5039845 magnetization 

 Free energy of the ion-electron system (eV)
  ---------------------------------------------------
  alpha Z        PSCENC =        47.94900195
  Ewald energy   TEWEN  =     41309.03722986
  -Hartree energ DENC   =    -48283.11495933
  -exchange      EXHF   =         0.00000000
  -V(xc)+E(xc)   XCENC  =       647.70018509
  PAW double counting   =    148522.04250521  -148381.74397174
  entropy T*S    EENTRO =        -0.00000000
  eigenvalues    EBANDS =     -2762.41473923
  atomic energy  EATOM  =      8369.52358910
  ---------------------------------------------------
  free energy    TOTEN  =      -531.02115909 eV

  energy without entropy =     -531.02115909  energy(sigma->0) =     -531.02115909


--------------------------------------------------------------------------------------------------------




--------------------------------------- Iteration      1(  12)  ---------------------------------------


    POTLOK:  cpu time    1.9338: real time    1.9441
    SETDIJ:  cpu time    0.2548: real time    0.2557
    TRIAL :  cpu time   20.0095: real time   20.1614
    CORREC:  cpu time    9.2597: real time    9.3223
    CHARGE:  cpu time    2.9883: real time    3.0098
    --------------------------------------------
      LOOP:  cpu time   34.4856: real time   34.7494

 eigenvalue-minimisations  :     0
 total energy-change (2. order) :-0.3143040E-01  (-0.1050798E-01)
 number of electron     216.0000000 magnetization 
 augmentation part       -0.5039376 magnetization 

 Free energy of the ion-electron system (eV)
  ---------------------------------------------------
  alpha Z        PSCENC =        47.94900195
  Ewald energy   TEWEN  =     41309.03722986
  -Hartree energ DENC   =    -48278.63993706
  -exchange      EXHF   =         0.00000000
  -V(xc)+E(xc)   XCENC  =       647.60044898
  PAW double counting   =    147923.94436072  -147783.66904305
  entropy T*S    EENTRO =        -0.00000000
  eigenvalues    EBANDS =     -2766.79823999
  atomic energy  EATOM  =      8369.52358910
  ---------------------------------------------------
  free energy    TOTEN  =      -531.05258949 eV

  energy without entropy =     -531.05258949  energy(sigma->0) =     -531.05258949


--------------------------------------------------------------------------------------------------------




--------------------------------------- Iteration      1(  13)  ---------------------------------------


    POTLOK:  cpu time    1.9314: real time    1.9418
    SETDIJ:  cpu time    0.2536: real time    0.2546
    TRIAL :  cpu time   20.0019: real time   20.1552
    CORREC:  cpu time    9.2459: real time    9.3130
    CHARGE:  cpu time    2.9866: real time    3.0075
    --------------------------------------------
      LOOP:  cpu time   34.4632: real time   34.7360

 eigenvalue-minimisations  :     0
 total energy-change (2. order) :-0.1051685E-01  (-0.2928635E-02)
 number of electron     216.0000000 magnetization 
 augmentation part       -0.5045455 magnetization 

 Free energy of the ion-electron system (eV)
  ---------------------------------------------------
  alpha Z        PSCENC =        47.94900195
  Ewald energy   TEWEN  =     41309.03722986
  -Hartree energ DENC   =    -48277.12779010
  -exchange      EXHF   =         0.00000000
  -V(xc)+E(xc)   XCENC  =       647.55011407
  PAW double counting   =    147403.58459073  -147263.32213602
  entropy T*S    EENTRO =        -0.00000000
  eigenvalues    EBANDS =     -2768.25770593
  atomic energy  EATOM  =      8369.52358910
  ---------------------------------------------------
  free energy    TOTEN  =      -531.06310634 eV

  energy without entropy =     -531.06310634  energy(sigma->0) =     -531.06310634


--------------------------------------------------------------------------------------------------------




--------------------------------------- Iteration      1(  14)  ---------------------------------------


    POTLOK:  cpu time    1.9322: real time    1.9423
    SETDIJ:  cpu time    0.2603: real time    0.2612
    TRIAL :  cpu time   19.9913: real time   20.1501
    CORREC:  cpu time    9.2529: real time    9.3150
    CHARGE:  cpu time    2.9950: real time    3.0177
    --------------------------------------------
      LOOP:  cpu time   34.4953: real time   34.7863

 eigenvalue-minimisations  :     0
 total energy-change (2. order) :-0.2934133E-02  (-0.7691713E-03)
 number of electron     216.0000000 magnetization 
 augmentation part       -0.5047933 magnetization 

 Free energy of the ion-electron system (eV)
  ---------------------------------------------------
  alpha Z        PSCENC =        47.94900195
  Ewald energy   TEWEN  =     41309.03722986
  -Hartree energ DENC   =    -48277.03309734
  -exchange      EXHF   =         0.00000000
  -V(xc)+E(xc)   XCENC  =       647.54242452
  PAW double counting   =    147158.26478486  -147018.00784817
  entropy T*S    EENTRO =        -0.00000000
  eigenvalues    EBANDS =     -2768.34212525
  atomic energy  EATOM  =      8369.52358910
  ---------------------------------------------------
  free energy    TOTEN  =      -531.06604047 eV

  energy without entropy =     -531.06604047  energy(sigma->0) =     -531.06604047


--------------------------------------------------------------------------------------------------------




--------------------------------------- Iteration      1(  15)  ---------------------------------------


    POTLOK:  cpu time    1.9303: real time    1.9413
    SETDIJ:  cpu time    0.2519: real time    0.2528
    TRIAL :  cpu time   20.0002: real time   20.1684
    CORREC:  cpu time    9.2484: real time    9.3143
    CHARGE:  cpu time    2.9850: real time    3.0072
    --------------------------------------------
      LOOP:  cpu time   34.4523: real time   34.7230

 eigenvalue-minimisations  :     0
 total energy-change (2. order) :-0.7697535E-03  (-0.2069316E-03)
 number of electron     216.0000000 magnetization 
 augmentation part       -0.5049244 magnetization 

 Free energy of the ion-electron system (eV)
  ---------------------------------------------------
  alpha Z        PSCENC =        47.94900195
  Ewald energy   TEWEN  =     41309.03722986
  -Hartree energ DENC   =    -48276.92764549
  -exchange      EXHF   =         0.00000000
  -V(xc)+E(xc)   XCENC  =       647.54316283
  PAW double counting   =    147057.15000468  -146916.89579795
  entropy T*S    EENTRO =        -0.00000000
  eigenvalues    EBANDS =     -2768.44635520
  atomic energy  EATOM  =      8369.52358910
  ---------------------------------------------------
  free energy    TOTEN  =      -531.06681022 eV

  energy without entropy =     -531.06681022  energy(sigma->0) =     -531.06681022


--------------------------------------------------------------------------------------------------------




--------------------------------------- Iteration      1(  16)  ---------------------------------------


    POTLOK:  cpu time    1.9330: real time    1.9433
    SETDIJ:  cpu time    0.2481: real time    0.2489
    TRIAL :  cpu time   20.0095: real time   20.1576
    CORREC:  cpu time    9.1979: real time    9.3169
    CHARGE:  cpu time    2.9963: real time    3.0187
    --------------------------------------------
      LOOP:  cpu time   34.4401: real time   34.7570

 eigenvalue-minimisations  :     0
 total energy-change (2. order) :-0.2073744E-03  (-0.6545868E-04)
 number of electron     216.0000000 magnetization 
 augmentation part       -0.5049631 magnetization 

 Free energy of the ion-electron system (eV)
  ---------------------------------------------------
  alpha Z        PSCENC =        47.94900195
  Ewald energy   TEWEN  =     41309.03722986
  -Hartree energ DENC   =    -48276.83428150
  -exchange      EXHF   =         0.00000000
  -V(xc)+E(xc)   XCENC  =       647.54171019
  PAW double counting   =    146995.84340157  -146855.58981736
  entropy T*S    EENTRO =        -0.00000000
  eigenvalues    EBANDS =     -2768.53785141
  atomic energy  EATOM  =      8369.52358910
  ---------------------------------------------------
  free energy    TOTEN  =      -531.06701760 eV

  energy without entropy =     -531.06701760  energy(sigma->0) =     -531.06701760


--------------------------------------------------------------------------------------------------------




--------------------------------------- Iteration      1(  17)  ---------------------------------------


    POTLOK:  cpu time    1.9329: real time    1.9434
    SETDIJ:  cpu time    0.2488: real time    0.2497
    TRIAL :  cpu time   19.9690: real time   20.1423
    CORREC:  cpu time    9.2333: real time    9.3260
    CHARGE:  cpu time    2.9787: real time    3.0000
    --------------------------------------------
      LOOP:  cpu time   34.4370: real time   34.7374

 eigenvalue-minimisations  :     0
 total energy-change (2. order) :-0.6475238E-04  (-0.2514031E-04)
 number of electron     216.0000000 magnetization 
 augmentation part       -0.5049682 magnetization 

 Free energy of the ion-electron system (eV)
  ---------------------------------------------------
  alpha Z        PSCENC =        47.94900195
  Ewald energy   TEWEN  =     41309.03722986
  -Hartree energ DENC   =    -48276.94484660
  -exchange      EXHF   =         0.00000000
  -V(xc)+E(xc)   XCENC  =       647.54793921
  PAW double counting   =    146952.15200774  -146811.89908328
  entropy T*S    EENTRO =        -0.00000000
  eigenvalues    EBANDS =     -2768.43292033
  atomic energy  EATOM  =      8369.52358910
  ---------------------------------------------------
  free energy    TOTEN  =      -531.06708235 eV

  energy without entropy =     -531.06708235  energy(sigma->0) =     -531.06708235


--------------------------------------------------------------------------------------------------------




--------------------------------------- Iteration      1(  18)  ---------------------------------------


    POTLOK:  cpu time    1.9305: real time    1.9409
    SETDIJ:  cpu time    0.2523: real time    0.2532
    TRIAL :  cpu time   19.9923: real time   20.1661
    CORREC:  cpu time    9.2519: real time    9.3169
    CHARGE:  cpu time    3.0005: real time    3.0218
    --------------------------------------------
      LOOP:  cpu time   34.5005: real time   34.7741

 eigenvalue-minimisations  :     0
 total energy-change (2. order) :-0.2407006E-04  (-0.1012942E-04)
 number of electron     216.0000000 magnetization 
 augmentation part       -0.5049980 magnetization 

 Free energy of the ion-electron system (eV)
  ---------------------------------------------------
  alpha Z        PSCENC =        47.94900195
  Ewald energy   TEWEN  =     41309.03722986
  -Hartree energ DENC   =    -48277.01468132
  -exchange      EXHF   =         0.00000000
  -V(xc)+E(xc)   XCENC  =       647.55123112
  PAW double counting   =    146933.64309105  -146793.39011469
  entropy T*S    EENTRO =        -0.00000000
  eigenvalues    EBANDS =     -2768.36645349
  atomic energy  EATOM  =      8369.52358910
  ---------------------------------------------------
  free energy    TOTEN  =      -531.06710642 eV

  energy without entropy =     -531.06710642  energy(sigma->0) =     -531.06710642


--------------------------------------------------------------------------------------------------------




--------------------------------------- Iteration      1(  19)  ---------------------------------------


    POTLOK:  cpu time    1.9308: real time    1.9412
    SETDIJ:  cpu time    0.2543: real time    0.2552
    TRIAL :  cpu time   19.9743: real time   20.1530
    CORREC:  cpu time    9.2588: real time    9.3208
    CHARGE:  cpu time    2.9877: real time    3.0087
    --------------------------------------------
      LOOP:  cpu time   34.4372: real time   34.7113

 eigenvalue-minimisations  :     0
 total energy-change (2. order) :-0.9764219E-05  (-0.4574922E-05)
 number of electron     216.0000000 magnetization 
 augmentation part       -0.5050117 magnetization 

 Free energy of the ion-electron system (eV)
  ---------------------------------------------------
  alpha Z        PSCENC =        47.94900195
  Ewald energy   TEWEN  =     41309.03722986
  -Hartree energ DENC   =    -48277.02108258
  -exchange      EXHF   =         0.00000000
  -V(xc)+E(xc)   XCENC  =       647.55075374
  PAW double counting   =    146935.86184897  -146795.60828850
  entropy T*S    EENTRO =        -0.00000000
  eigenvalues    EBANDS =     -2768.36016873
  atomic energy  EATOM  =      8369.52358910
  ---------------------------------------------------
  free energy    TOTEN  =      -531.06711618 eV

  energy without entropy =     -531.06711618  energy(sigma->0) =     -531.06711618


--------------------------------------------------------------------------------------------------------




--------------------------------------- Iteration      1(  20)  ---------------------------------------


    POTLOK:  cpu time    1.9314: real time    1.9417
    SETDIJ:  cpu time    0.2566: real time    0.2574
    TRIAL :  cpu time   19.9679: real time   20.1420
    CORREC:  cpu time    9.2570: real time    9.3187
    CHARGE:  cpu time    2.9823: real time    3.0150
    --------------------------------------------
      LOOP:  cpu time   34.4752: real time   34.7570

 eigenvalue-minimisations  :     0
 total energy-change (2. order) :-0.3880588E-05  (-0.1022738E-05)
 number of electron     216.0000000 magnetization 
 augmentation part       -0.5050162 magnetization 

 Free energy of the ion-electron system (eV)
  ---------------------------------------------------
  alpha Z        PSCENC =        47.94900195
  Ewald energy   TEWEN  =     41309.03722986
  -Hartree energ DENC   =    -48277.05726475
  -exchange      EXHF   =         0.00000000
  -V(xc)+E(xc)   XCENC  =       647.55201445
  PAW double counting   =    146946.17667994  -146805.92295908
  entropy T*S    EENTRO =        -0.00000000
  eigenvalues    EBANDS =     -2768.32541153
  atomic energy  EATOM  =      8369.52358910
  ---------------------------------------------------
  free energy    TOTEN  =      -531.06712006 eV

  energy without entropy =     -531.06712006  energy(sigma->0) =     -531.06712006


--------------------------------------------------------------------------------------------------------




--------------------------------------- Iteration      1(  21)  ---------------------------------------


    POTLOK:  cpu time    1.9332: real time    1.9440
    SETDIJ:  cpu time    0.2569: real time    0.2578
    TRIAL :  cpu time   19.9871: real time   20.1453
    CORREC:  cpu time    9.2554: real time    9.3236
    CHARGE:  cpu time    2.9848: real time    3.0058
    --------------------------------------------
      LOOP:  cpu time   34.4279: real time   34.6997

 eigenvalue-minimisations  :     0
 total energy-change (2. order) :-0.1008273E-05  (-0.4398984E-06)
 number of electron     216.0000000 magnetization 
 augmentation part       -0.5050113 magnetization 

 Free energy of the ion-electron system (eV)
  ---------------------------------------------------
  alpha Z        PSCENC =        47.94900195
  Ewald energy   TEWEN  =     41309.03722986
  -Hartree energ DENC   =    -48277.05226610
  -exchange      EXHF   =         0.00000000
  -V(xc)+E(xc)   XCENC  =       647.55140203
  PAW double counting   =    146950.26724590  -146810.01342261
  entropy T*S    EENTRO =        -0.00000000
  eigenvalues    EBANDS =     -2768.32990120
  atomic energy  EATOM  =      8369.52358910
  ---------------------------------------------------
  free energy    TOTEN  =      -531.06712107 eV

  energy without entropy =     -531.06712107  energy(sigma->0) =     -531.06712107


--------------------------------------------------------------------------------------------------------




--------------------------------------- Iteration      1(  22)  ---------------------------------------


    POTLOK:  cpu time    1.9337: real time    1.9441
    SETDIJ:  cpu time    0.2526: real time    0.2535
    TRIAL :  cpu time   19.9778: real time   20.1479
    CORREC:  cpu time    9.2645: real time    9.3286
    CHARGE:  cpu time    2.9813: real time    3.0034
    --------------------------------------------
      LOOP:  cpu time   34.4253: real time   34.6960

 eigenvalue-minimisations  :     0
 total energy-change (2. order) :-0.3907189E-06  (-0.1811943E-06)
 number of electron     216.0000000 magnetization 
 augmentation part       -0.5050045 magnetization 

 Free energy of the ion-electron system (eV)
  ---------------------------------------------------
  alpha Z        PSCENC =        47.94900195
  Ewald energy   TEWEN  =     41309.03722986
  -Hartree energ DENC   =    -48277.04760280
  -exchange      EXHF   =         0.00000000
  -V(xc)+E(xc)   XCENC  =       647.55110874
  PAW double counting   =    146951.15698620  -146810.90318593
  entropy T*S    EENTRO =        -0.00000000
  eigenvalues    EBANDS =     -2768.33424858
  atomic energy  EATOM  =      8369.52358910
  ---------------------------------------------------
  free energy    TOTEN  =      -531.06712146 eV

  energy without entropy =     -531.06712146  energy(sigma->0) =     -531.06712146


--------------------------------------------------------------------------------------------------------




--------------------------------------- Iteration      1(  23)  ---------------------------------------


    POTLOK:  cpu time    1.9330: real time    1.9434
    SETDIJ:  cpu time    0.2696: real time    0.2705
    TRIAL :  cpu time   19.9899: real time   20.1532
    CORREC:  cpu time    9.2401: real time    9.3154
    CHARGE:  cpu time    2.9795: real time    3.0020
    --------------------------------------------
      LOOP:  cpu time   34.4551: real time   34.7295

 eigenvalue-minimisations  :     0
 total energy-change (2. order) :-0.1419685E-06  (-0.6486564E-07)
 number of electron     216.0000000 magnetization 
 augmentation part       -0.5050026 magnetization 

 Free energy of the ion-electron system (eV)
  ---------------------------------------------------
  alpha Z        PSCENC =        47.94900195
  Ewald energy   TEWEN  =     41309.03722986
  -Hartree energ DENC   =    -48277.04620142
  -exchange      EXHF   =         0.00000000
  -V(xc)+E(xc)   XCENC  =       647.55108537
  PAW double counting   =    146951.19213077  -146810.93839568
  entropy T*S    EENTRO =        -0.00000000
  eigenvalues    EBANDS =     -2768.33556155
  atomic energy  EATOM  =      8369.52358910
  ---------------------------------------------------
  free energy    TOTEN  =      -531.06712161 eV

  energy without entropy =     -531.06712161  energy(sigma->0) =     -531.06712161


--------------------------------------------------------------------------------------------------------




--------------------------------------- Iteration      1(  24)  ---------------------------------------


    POTLOK:  cpu time    1.9331: real time    1.9433
    SETDIJ:  cpu time    0.2527: real time    0.2536
    TRIAL :  cpu time   19.9737: real time   20.1210
    CORREC:  cpu time    9.2549: real time    9.3300
    EDDIAG:  cpu time    4.1669: real time    4.1990
    CHARGE:  cpu time    2.9742: real time    2.9977
    --------------------------------------------
      LOOP:  cpu time   38.6385: real time   38.9310

 eigenvalue-minimisations  :     0
 total energy-change (2. order) :-0.3640889E-07  (-0.2328922E-07)
 number of electron     216.0000000 magnetization 
 augmentation part       -0.5050017 magnetization 

 Free energy of the ion-electron system (eV)
  ---------------------------------------------------
  alpha Z        PSCENC =        47.94900195
  Ewald energy   TEWEN  =     41309.03722986
  -Hartree energ DENC   =    -48277.04518165
  -exchange      EXHF   =         0.00000000
  -V(xc)+E(xc)   XCENC  =       647.55106597
  PAW double counting   =    146951.09408177  -146810.84037104
  entropy T*S    EENTRO =        -0.00000000
  eigenvalues    EBANDS =     -2768.33653761
  atomic energy  EATOM  =      8369.52358910
  ---------------------------------------------------
  free energy    TOTEN  =      -531.06712164 eV

  energy without entropy =     -531.06712164  energy(sigma->0) =     -531.06712164


--------------------------------------------------------------------------------------------------------


  average scaling for gradient   1.0041


 average (electrostatic) potential at core
  the test charge radii are     0.5770  0.5955
  (the norm of the test charge is              1.0000)
       1 -88.0707       2 -88.0693       3 -88.0706       4 -88.0701       5 -88.0667
       6 -88.0653       7 -88.0692       8 -88.0657       9 -88.0669      10 -88.0676
      11 -88.0643      12 -88.0653      13 -88.0668      14 -88.0632      15 -88.0640
      16 -88.0667      17 -88.0672      18 -88.0694      19 -88.0673      20 -88.0663
      21 -88.0663      22 -88.0626      23 -88.0682      24 -88.0667      25 -88.0663
      26 -88.0655      27 -88.0633      28 -88.0676      29 -88.0669      30 -88.0629
      31 -88.0651      32 -88.0663      33 -88.0668      34 -88.0672      35 -88.0631
      36 -88.0665      37 -88.0638      38 -88.0679      39 -88.0675      40 -88.0695
      41 -88.0703      42 -88.0709      43 -88.0687      44 -88.0695      45 -88.0662
      46 -88.0655      47 -88.0663      48 -88.0656      49 -88.0692      50 -88.0693
      51 -92.1540      52-124.2842      53-124.2840
 
 
 
 E-fermi :  -4.3978     XC(G=0):  -1.8900     alpha+bet : -1.6890

 Fermi energy:        -4.3978444974

 k-point     1 :       0.0000    0.0000    0.0000
  band No.  band energies     occupation 
      1     -29.2151      2.00000
      2     -28.1887      2.00000
      3     -23.5753      2.00000
      4     -22.5899      2.00000
      5     -22.5890      2.00000
      6     -22.5885      2.00000
      7     -22.5884      2.00000
      8     -22.5880      2.00000
      9     -22.5873      2.00000
     10     -20.6573      2.00000
     11     -20.6572      2.00000
     12     -20.6569      2.00000
     13     -20.6562      2.00000
     14     -20.6557      2.00000
     15     -20.6555      2.00000
     16     -19.7219      2.00000
     17     -19.7217      2.00000
     18     -19.7211      2.00000
     19     -19.7210      2.00000
     20     -19.7202      2.00000
     21     -19.7199      2.00000
     22     -17.5012      2.00000
     23     -17.5007      2.00000
     24     -17.5003      2.00000
     25     -17.4999      2.00000
     26     -17.4990      2.00000
     27     -17.4990      2.00000
     28     -16.3418      2.00000
     29     -16.3417      2.00000
     30     -16.3406      2.00000
     31     -16.3405      2.00000
     32     -16.3401      2.00000
     33     -16.3399      2.00000
     34     -14.9491      2.00000
     35     -14.9490      2.00000
     36     -14.9482      2.00000
     37     -14.9480      2.00000
     38     -14.9478      2.00000
     39     -14.9475      2.00000
     40     -13.1675      2.00000
     41     -12.4907      2.00000
     42     -12.4905      2.00000
     43     -12.4901      2.00000
     44     -12.4900      2.00000
     45     -12.4887      2.00000
     46     -12.4884      2.00000
     47     -12.2720      2.00000
     48     -12.2719      2.00000
     49     -12.2709      2.00000
     50     -12.2707      2.00000
     51     -12.2702      2.00000
     52     -12.2701      2.00000
     53     -11.8900      2.00000
     54     -11.6344      2.00000
     55     -11.6336      2.00000
     56     -10.9361      2.00000
     57     -10.8262      2.00000
     58     -10.8260      2.00000
     59     -10.8243      2.00000
     60     -10.8239      2.00000
     61     -10.8238      2.00000
     62     -10.8237      2.00000
     63      -9.7632      2.00000
     64      -9.7624      2.00000
     65      -9.7621      2.00000
     66      -9.7618      2.00000
     67      -9.7617      2.00000
     68      -9.7613      2.00000
     69      -9.5258      2.00000
     70      -9.5255      2.00000
     71      -9.5254      2.00000
     72      -9.5246      2.00000
     73      -9.5243      2.00000
     74      -9.5239      2.00000
     75      -9.5236      2.00000
     76      -9.5225      2.00000
     77      -9.5222      2.00000
     78      -9.5219      2.00000
     79      -9.5217      2.00000
     80      -9.5212      2.00000
     81      -8.0392      2.00000
     82      -8.0378      2.00000
     83      -7.8194      2.00000
     84      -7.8179      2.00000
     85      -7.8176      2.00000
     86      -7.8171      2.00000
     87      -7.8151      2.00000
     88      -7.8143      2.00000
     89      -7.5214      2.00000
     90      -7.5211      2.00000
     91      -7.5209      2.00000
     92      -7.5205      2.00000
     93      -7.5201      2.00000
     94      -7.5198      2.00000
     95      -6.5768      2.00000
     96      -6.5766      2.00000
     97      -6.5763      2.00000
     98      -6.5760      2.00000
     99      -6.5754      2.00000
    100      -6.5752      2.00000
    101      -6.3019      2.00000
    102      -6.2995      2.00000
    103      -4.4795      2.00000
    104      -4.4791      2.00000
    105      -4.4784      2.00000
    106      -4.4783      2.00000
    107      -4.4779      2.00000
    108      -4.4779      2.00000
    109      -1.5032      0.00000
    110      -1.5031      0.00000
    111      -1.5029      0.00000
    112      -1.5027      0.00000
    113      -1.5019      0.00000
    114      -1.5016      0.00000
    115       0.4765      0.00000
    116       0.4768      0.00000
    117       0.4771      0.00000
    118       0.4775      0.00000
    119       0.4776      0.00000
    120       0.4792      0.00000
    121       0.6670      0.00000
    122       0.9402      0.00000
    123       1.2409      0.00000
    124       1.2417      0.00000
    125       1.4304      0.00000
    126       1.7736      0.00000
    127       1.9768      0.00000
    128       1.9833      0.00000
    129       1.9844      0.00000
    130       1.9879      0.00000
    131       1.9901      0.00000
    132       1.9908      0.00000
    133       2.2279      0.00000
    134       2.3428      0.00000
    135       2.3542      0.00000
    136       2.3544      0.00000
    137       2.3547      0.00000
    138       2.3551      0.00000
    139       2.3553      0.00000
    140       2.3557      0.00000
    141       2.5840      0.00000
    142       2.6922      0.00000
    143       2.7102      0.00000
    144       2.7161      0.00000
    145       2.7211      0.00000
    146       2.7293      0.00000
    147       2.7384      0.00000
    148       2.7794      0.00000
    149       2.8024      0.00000
    150       2.8434      0.00000
    151       2.8662      0.00000
    152       3.1924      0.00000
    153       3.4247      0.00000
    154       3.4824      0.00000
    155       3.5368      0.00000
    156       3.7153      0.00000
    157       4.2920      0.00000
    158       4.4502      0.00000
    159       4.5840      0.00000
    160       4.6365      0.00000
    161       4.9459      0.00000
    162       4.9494      0.00000
    163       4.9568      0.00000
    164       4.9609      0.00000
    165       4.9610      0.00000
    166       4.9627      0.00000
    167       4.9818      0.00000
    168       5.2071      0.00000


--------------------------------------------------------------------------------------------------------


 soft charge-density along one line, spin component           1
         0         1         2         3         4         5         6         7         8         9
 total charge-density along one line
 
 pseudopotential strength for first ion, spin component:           1
 12.643  21.273  -0.000   0.000   0.000  -0.000   0.000   0.000
 21.273  35.792  -0.000   0.000   0.000  -0.000   0.000   0.000
 -0.000  -0.000  -3.239   0.000   0.000  -5.803   0.000   0.000
  0.000   0.000   0.000  -3.243   0.000   0.000  -5.810   0.000
  0.000   0.000   0.000   0.000  -3.239   0.000   0.000  -5.804
 -0.000  -0.000  -5.803   0.000   0.000 -10.375   0.000   0.000
  0.000   0.000   0.000  -5.810   0.000   0.000 -10.385   0.000
  0.000   0.000   0.000   0.000  -5.804   0.000   0.000 -10.375
 total augmentation occupancy for first ion, spin component:           1
  9.643  -3.599   0.000  -0.002  -0.001  -0.000   0.001   0.000
 -3.599   1.374  -0.000   0.001   0.001   0.000  -0.000  -0.000
  0.000  -0.000   8.197  -0.009   0.001  -2.896   0.003  -0.000
 -0.002   0.001  -0.009   3.784  -0.000   0.003  -1.107   0.000
 -0.001   0.001   0.001  -0.000   8.196  -0.000   0.000  -2.895
 -0.000   0.000  -2.896   0.003  -0.000   1.036  -0.001   0.000
  0.001  -0.000   0.003  -1.107   0.000  -0.001   0.329  -0.000
  0.000  -0.000  -0.000   0.000  -2.895   0.000  -0.000   1.035


------------------------ aborting loop because EDIFF is reached ----------------------------------------


    FORLOC:  cpu time    0.1399: real time    0.1408
    FORNL :  cpu time    3.7941: real time    3.8260
    FORCOR:  cpu time    1.9188: real time    1.9298
    OFIELD:  cpu time    0.0031: real time    0.0031

 VOLUME and BASIS-vectors are now :
 -----------------------------------------------------------------------------
  energy-cutoff  :     1000.00
  volume of cell :     3288.85
      direct lattice vectors                 reciprocal lattice vectors
    12.325000000  0.000000000  0.000000000     0.081135903  0.046843835  0.000000000
    -6.162500000 10.673763102  0.000000000     0.000000000  0.093687670  0.000000000
     0.000000000  0.000000000 25.000000000     0.000000000  0.000000000  0.040000000

  length of vectors
    12.325000000 12.325000000 25.000000000     0.093687670  0.093687670  0.040000000


 FORCES acting on ions:
    Electron-Ion                     Ewald-Force                    Non-Local-Force
 -----------------------------------------------------------------------------------------------
   0.634E+00 0.556E+00 0.136E+02   -.629E+00 -.562E+00 -.136E+02   -.404E-02 0.612E-02 0.822E-02
   0.865E+00 0.474E+00 0.146E+02   -.864E+00 -.482E+00 -.146E+02   -.394E-02 0.126E-01 -.487E-02
   0.336E+00 0.935E+00 0.146E+02   -.344E+00 -.940E+00 -.146E+02   0.961E-02 0.183E-01 -.726E-03
   0.424E+00 0.620E+00 0.168E+02   -.427E+00 -.631E+00 -.168E+02   0.201E-01 0.165E-01 -.172E-01
   0.720E+00 0.181E+00 0.141E+02   -.710E+00 -.191E+00 -.141E+02   -.122E-01 0.897E-02 0.483E-02
   0.729E+00 -.172E+00 0.143E+02   -.729E+00 0.165E+00 -.143E+02   -.111E-01 0.146E-01 -.377E-02
   0.816E+00 0.364E+00 0.169E+02   -.818E+00 -.377E+00 -.169E+02   0.124E-01 0.232E-03 -.663E-02
   0.846E+00 -.270E+00 0.181E+02   -.851E+00 0.261E+00 -.181E+02   -.686E-02 0.119E-01 -.370E-02
   -.417E+00 0.930E+00 0.150E+02   0.408E+00 -.936E+00 -.150E+02   0.177E-01 -.875E-02 -.498E-02
   -.513E+00 0.444E+00 0.171E+02   0.506E+00 -.451E+00 -.171E+02   -.121E-01 0.237E-01 0.256E-02
   0.191E+00 -.190E+00 0.134E+02   -.186E+00 0.192E+00 -.134E+02   0.217E-02 -.426E-02 -.780E-03
   0.185E+00 -.150E+00 0.132E+02   -.192E+00 0.157E+00 -.132E+02   0.927E-03 -.610E-02 0.612E-02
   0.215E+00 -.658E+00 0.189E+02   -.219E+00 0.654E+00 -.189E+02   0.299E-01 0.282E-02 0.429E-03
   0.145E+00 -.102E+01 0.162E+02   -.147E+00 0.103E+01 -.162E+02   0.111E-02 0.758E-02 -.160E-01
   -.672E+00 0.398E+00 0.137E+02   0.674E+00 -.402E+00 -.137E+02   0.680E-02 -.129E-02 0.790E-02
   -.839E+00 0.222E+00 0.139E+02   0.839E+00 -.223E+00 -.139E+02   -.215E-02 0.675E-02 -.100E-01
   -.120E+00 -.388E-01 0.128E+02   0.120E+00 0.490E-01 -.128E+02   0.578E-02 -.163E-01 0.270E-02
   0.508E-01 0.419E+00 0.128E+02   -.572E-01 -.412E+00 -.129E+02   0.645E-02 -.108E-01 0.115E-01
   -.176E+00 -.961E+00 0.148E+02   0.181E+00 0.969E+00 -.148E+02   -.203E-02 -.103E-01 -.313E-02
   -.985E-01 -.596E+00 0.136E+02   0.106E+00 0.603E+00 -.136E+02   -.154E-01 -.928E-02 0.580E-03
   0.923E+00 -.391E+00 0.156E+02   -.920E+00 0.385E+00 -.156E+02   -.451E-02 0.819E-02 -.204E-01
   0.666E+00 -.533E+00 0.147E+02   -.670E+00 0.533E+00 -.147E+02   -.452E-02 0.682E-02 0.823E-03
   -.159E+00 0.245E+00 0.187E+02   0.146E+00 -.253E+00 -.187E+02   0.157E-02 0.253E-01 0.211E-02
   -.231E+00 -.412E+00 0.187E+02   0.230E+00 0.402E+00 -.187E+02   0.183E-01 -.460E-02 -.114E-01
   0.354E+00 -.125E+00 0.135E+02   -.357E+00 0.129E+00 -.135E+02   0.109E-01 -.103E-01 -.583E-02
   0.102E+00 0.307E+00 0.133E+02   -.113E+00 -.301E+00 -.133E+02   0.982E-02 -.460E-02 0.801E-02
   -.100E+01 0.755E-01 0.154E+02   0.100E+01 -.811E-01 -.155E+02   0.199E-01 0.120E-01 -.780E-03
   -.908E+00 -.386E+00 0.149E+02   0.910E+00 0.386E+00 -.149E+02   -.814E-02 0.771E-02 -.538E-02
   0.353E+00 -.753E+00 0.149E+02   -.352E+00 0.754E+00 -.148E+02   0.414E-02 0.153E-02 -.117E-01
   0.368E-01 -.328E+00 0.137E+02   -.383E-01 0.333E+00 -.137E+02   -.578E-02 -.772E-03 0.127E-03
   -.650E+00 -.636E+00 0.159E+02   0.648E+00 0.639E+00 -.158E+02   -.115E-01 -.988E-02 -.177E-01
   -.478E+00 -.920E+00 0.146E+02   0.486E+00 0.926E+00 -.146E+02   -.691E-02 -.120E-01 -.497E-03
   0.451E-01 0.208E+00 0.131E+02   -.328E-01 -.212E+00 -.131E+02   -.123E-01 0.116E-03 0.922E-02
   0.124E+00 0.173E+00 0.132E+02   -.119E+00 -.178E+00 -.132E+02   -.144E-01 0.130E-01 -.199E-02
   -.439E+00 0.823E-01 0.134E+02   0.447E+00 -.865E-01 -.134E+02   -.359E-02 0.198E-02 0.929E-02
   -.389E+00 -.187E+00 0.133E+02   0.388E+00 0.187E+00 -.133E+02   -.437E-02 0.142E-02 0.119E-03
   -.728E+00 -.400E+00 0.135E+02   0.731E+00 0.404E+00 -.135E+02   -.499E-03 -.872E-02 0.524E-02
   -.489E+00 -.387E+00 0.131E+02   0.489E+00 0.396E+00 -.131E+02   -.319E-02 -.133E-01 0.866E-02
   -.447E+00 -.552E+00 0.133E+02   0.450E+00 0.566E+00 -.133E+02   -.806E-02 -.168E-01 0.546E-02
   -.598E-01 -.155E+00 0.130E+02   0.667E-01 0.163E+00 -.130E+02   -.614E-02 -.119E-01 0.924E-02
   0.173E+00 0.433E+00 0.129E+02   -.175E+00 -.427E+00 -.129E+02   -.326E-02 -.802E-02 0.879E-02
   0.519E+00 0.770E+00 0.135E+02   -.518E+00 -.772E+00 -.136E+02   -.127E-03 0.936E-04 0.917E-02
   0.555E-01 0.701E+00 0.131E+02   -.621E-01 -.698E+00 -.131E+02   0.148E-01 -.642E-02 0.369E-02
   -.293E-02 0.996E+00 0.142E+02   -.769E-02 -.998E+00 -.142E+02   0.867E-02 0.204E-02 0.637E-02
   -.144E+00 0.250E+00 0.135E+02   0.140E+00 -.252E+00 -.135E+02   0.137E-01 -.430E-02 -.669E-03
   -.481E+00 0.620E+00 0.139E+02   0.474E+00 -.618E+00 -.139E+02   0.514E-02 -.101E-02 -.292E-02
   -.145E+00 -.314E+00 0.135E+02   0.153E+00 0.313E+00 -.135E+02   -.471E-02 -.291E-02 0.443E-02
   -.276E+00 0.979E-01 0.131E+02   0.283E+00 -.954E-01 -.131E+02   -.159E-01 0.215E-02 -.437E-02
   0.300E-01 -.182E+00 0.131E+02   -.209E-01 0.187E+00 -.131E+02   -.101E-01 -.105E-01 0.787E-02
   0.312E+00 0.219E+00 0.130E+02   -.304E+00 -.217E+00 -.130E+02   -.157E-01 0.210E-02 0.524E-02
   -.515E-05 0.200E-01 -.179E+03   -.143E-02 -.241E-01 0.180E+03   -.169E-01 0.181E-01 -.271E-02
   -.228E+03 0.155E+03 -.282E+03   0.279E+03 -.190E+03 0.285E+03   -.527E+02 0.359E+02 -.354E+01
   0.228E+03 -.155E+03 -.260E+03   -.279E+03 0.190E+03 0.257E+03   0.528E+02 -.359E+02 0.319E+01
 -----------------------------------------------------------------------------------------------
   -.189E-01 0.202E-02 0.375E+00   0.114E-12 -.114E-12 -.114E-12   0.223E-01 0.392E-01 -.365E+00
 
 
 POSITION                                       TOTAL-FORCE (eV/Angst)
 -----------------------------------------------------------------------------------
     11.98348      0.00342      0.01417        -0.006838      0.005651     -0.000643
     -0.34154      1.42665      0.01100        -0.013787      0.018157     -0.002674
      2.12355      0.00315      0.01249         0.009466      0.017761     -0.006420
      2.12326      1.42653      0.00641         0.028228      0.019301     -0.007448
     10.75099      2.13819      0.01213        -0.007696      0.016058      0.000158
     -1.57382      3.56123      0.01110        -0.026713      0.013541     -0.002423
      0.89078      2.13854      0.00548         0.010155      0.010456      0.003474
      0.89099      3.56147      0.00181        -0.010972      0.011166      0.013975
      4.58864      0.00346      0.01135         0.025769     -0.018719     -0.003072
      4.58894      1.42623      0.00646         0.002813      0.028468      0.014604
      9.51854      4.27281      0.01369         0.016092      0.000746     -0.001075
     -2.80632      5.69591      0.01434        -0.006452     -0.017328     -0.000257
      2.12300      4.27302      0.00000         0.023575      0.015793      0.023194
      2.12335      5.69594      0.00581         0.003878      0.004732     -0.001021
      7.05344      0.00333      0.01399         0.008376     -0.015768     -0.001570
      7.05353      1.42635      0.01368        -0.003264      0.013830     -0.006702
      8.28610      6.40752      0.01601         0.017445     -0.021188     -0.000649
     -4.03885      7.83070      0.01636         0.006943     -0.018953      0.000195
      3.35586      6.40753      0.01007        -0.014976     -0.011599     -0.003029
      3.35599      7.83072      0.01320        -0.018204     -0.008354      0.000108
     -0.34146      4.27290      0.00723         0.000158      0.019500     -0.005763
     -0.34138      5.69591      0.00946        -0.013093      0.003535      0.000378
      3.35624      2.13791      0.00222        -0.005935      0.033374      0.018122
      3.35573      3.56155      0.00139         0.032814     -0.008668      0.010160
     -1.57395      6.40758      0.01311         0.025011     -0.015046     -0.002367
     -1.57385      7.83068      0.01438         0.009425     -0.003031      0.000491
      5.82093      2.13784      0.01033         0.020094      0.006931     -0.001414
      5.82114      3.56097      0.01156         0.000696      0.001763     -0.007032
      0.89092      6.40755      0.00907         0.004032     -0.000070     -0.004712
      0.89106      7.83068      0.01235        -0.007808      0.008509      0.001393
      4.58871      4.27293      0.00850        -0.024650     -0.003568     -0.012025
      4.58852      5.69606      0.01149         0.001046     -0.024615     -0.005264
      9.51845      0.00337      0.01490        -0.017304     -0.006493      0.000335
      9.51855      1.42644      0.01438        -0.030798      0.019996     -0.001039
      8.28593      2.13803      0.01453         0.002341     -0.000341      0.001486
      8.28613      3.56115      0.01464        -0.013106     -0.004208     -0.002696
      7.05356      4.27269      0.01457         0.003410     -0.008533      0.000086
      7.05362      5.69588      0.01553        -0.002385     -0.028829     -0.000928
      5.82112      6.40755      0.01489        -0.015889     -0.018204      0.000043
      5.82102      7.83073      0.01579        -0.005251     -0.020181      0.000279
      7.05363      8.54227      0.01631        -0.003695     -0.011156      0.001461
     -5.27149      9.96549      0.01495         0.001334     -0.001512     -0.002176
     -2.80638      8.54234      0.01558         0.028087     -0.015238     -0.000709
     -2.80627      9.96553      0.01362         0.016302      0.003899     -0.003602
     -0.34149      8.54239      0.01378         0.022809     -0.017500     -0.001713
     -0.34138      9.96550      0.01354         0.010488      0.010105     -0.002665
      2.12343      8.54232      0.01336        -0.013020     -0.014239     -0.000951
      2.12354      9.96544      0.01469        -0.023942      0.013374     -0.002872
      4.58846      8.54235      0.01505        -0.019886     -0.016635      0.001770
      4.58853      9.96550      0.01517        -0.024705      0.006721      0.000893
      3.04930      2.68154      8.40896        -0.035216      0.022698      0.040899
      4.02070      2.02068      8.47339        -1.648455      1.113731     -0.127299
      2.07767      3.34267      8.34951         1.683255     -1.109823      0.088704
 -----------------------------------------------------------------------------------
    total drift:                                0.003415      0.041231      0.010798


--------------------------------------------------------------------------------------------------------



  FREE ENERGIE OF THE ION-ELECTRON SYSTEM (eV)
  ---------------------------------------------------
  free  energy   TOTEN  =      -531.06712164 eV

  energy  without entropy=     -531.06712164  energy(sigma->0) =     -531.06712164
 


--------------------------------------------------------------------------------------------------------


    POTLOK:  cpu time    2.1871: real time    2.2010


--------------------------------------------------------------------------------------------------------


 writing wavefunctions
     LOOP+:  cpu time  874.4939: real time  881.8289
    4ORBIT:  cpu time    0.0000: real time    0.0000

 total amount of memory used by VASP MPI-rank0   698619. kBytes
=======================================================================

   base      :      30000. kBytes
   nonl-proj :     230539. kBytes
   fftplans  :      40716. kBytes
   grid      :     363125. kBytes
   one-center:        162. kBytes
   wavefun   :      34077. kBytes
 
  
  
 General timing and accounting informations for this job:
 ========================================================
  
                  Total CPU time used (sec):      918.656
                            User time (sec):      893.550
                          System time (sec):       25.106
                         Elapsed time (sec):      927.292
  
                   Maximum memory used (kb):     1277800.
                   Average memory used (kb):          N/A
  
                          Minor page faults:       141209
                          Major page faults:          104
                 Voluntary context switches:         3711
