 vasp.6.2.1 16May21 (build Nov 06 2021 14:46:37) complex                        
  
 executed on             LinuxIFC date 2025.03.03  22:11:53
 running on  112 total cores
 distrk:  each k-point on   56 cores,    2 groups
 distr:  one band on NCORE=   1 cores,   56 groups


--------------------------------------------------------------------------------------------------------


 INCAR:
   ALGO = Conjugate
   KPAR = 2
   NCORE = 32
   ISMEAR = 0
   SIGMA = 0.01
   PREC = Accurate
   EDIFF = 1E-7
   ENCUT = 1000
   ISIF = 0
   METAGGA = SCAN
   LASPH = .TRUE.
   SYMPREC = 1E-7

 POTCAR:    PAW_PBE C_h 06Feb2004                 
 POTCAR:    PAW_PBE O_h 06Feb2004                 
 -----------------------------------------------------------------------------
|                                                                             |
|           W    W    AA    RRRRR   N    N  II  N    N   GGGG   !!!           |
|           W    W   A  A   R    R  NN   N  II  NN   N  G    G  !!!           |
|           W    W  A    A  R    R  N N  N  II  N N  N  G       !!!           |
|           W WW W  AAAAAA  RRRRR   N  N N  II  N  N N  G  GGG   !            |
|           WW  WW  A    A  R   R   N   NN  II  N   NN  G    G                |
|           W    W  A    A  R    R  N    N  II  N    N   GGGG   !!!           |
|                                                                             |
|     The value NCORE = 32 specified in the INCAR file was overwritten,       |
|     because it was not compatible with the 56 processes available:          |
|     NCORE = 1                                                               |
|     was used instead, please check that this makes sense for your           |
|     machine.                                                                |
|                                                                             |
 -----------------------------------------------------------------------------

 -----------------------------------------------------------------------------
|                                                                             |
|           W    W    AA    RRRRR   N    N  II  N    N   GGGG   !!!           |
|           W    W   A  A   R    R  NN   N  II  NN   N  G    G  !!!           |
|           W    W  A    A  R    R  N N  N  II  N N  N  G       !!!           |
|           W WW W  AAAAAA  RRRRR   N  N N  II  N  N N  G  GGG   !            |
|           WW  WW  A    A  R   R   N   NN  II  N   NN  G    G                |
|           W    W  A    A  R    R  N    N  II  N    N   GGGG   !!!           |
|                                                                             |
|     For optimal performance we recommend to set                             |
|       NCORE = 2 up to number-of-cores-per-socket                            |
|     NCORE specifies how many cores store one orbital (NPAR=cpu/NCORE).      |
|     This setting can greatly improve the performance of VASP for DFT.       |
|     The default, NCORE=1 might be grossly inefficient on modern             |
|     multi-core architectures or massively parallel machines. Do your        |
|     own testing! More info at https://www.vasp.at/wiki/index.php/NCORE      |
|     Unfortunately you need to use the default for GW and RPA                |
|     calculations (for HF NCORE is supported but not extensively tested      |
|     yet).                                                                   |
|                                                                             |
 -----------------------------------------------------------------------------

 POTCAR:    PAW_PBE C_h 06Feb2004                 
   VRHFIN =C: s2p2                                                                                  
   LEXCH  = PE                                                                                      
   EATOM  =   147.1560 eV,   10.8157 Ry                                                             
                                                                                                    
   TITEL  = PAW_PBE C_h 06Feb2004                                                                   
   LULTRA =        F    use ultrasoft PP ?                                                          
   IUNSCR =        1    unscreen: 0-lin 1-nonlin 2-no                                               
   RPACOR =    0.800    partial core radius                                                         
   POMASS =   12.011; ZVAL   =    4.000    mass and valenz                                          
   RCORE  =    1.100    outmost cutoff radius                                                       
   RWIGS  =    1.630; RWIGS  =    0.863    wigner-seitz radius (au A)                               
   ENMAX  =  700.000; ENMIN  =  500.000 eV                                                          
   ICORE  =        2    local potential                                                             
   LCOR   =        T    correct aug charges                                                         
   LPAW   =        T    paw PP                                                                      
   EAUG   =  946.768                                                                                
   DEXC   =    0.000                                                                                
   RMAX   =    1.128    core radius for proj-oper                                                   
   RAUG   =    1.300    factor for augmentation sphere                                              
   RDEP   =    1.162    radius for radial grids                                                     
   RDEPT  =    1.088    core radius for aug-charge                                                  
                                                                                                    
   Atomic configuration                                                                             
    4 entries                                                                                       
     n  l   j            E        occ.                                                              
     1  0  0.50      -273.3789   2.0000                                                             
     2  0  0.50       -13.7508   2.0000                                                             
     2  1  0.50        -5.2854   2.0000                                                             
     3  2  1.50        -5.4423   0.0000                                                             
   Description                                                                                      
     l       E           TYP  RCUT    TYP  RCUT                                                     
     0    -13.7508458     23  1.100                                                                 
     0     -8.2022199     23  1.100                                                                 
     1     -5.2854383     23  1.100                                                                 
     1      1.1560700     23  1.100                                                                 
     2     -5.4423304      7  1.100                                                                 
  local pseudopotential read in
  partial core-charges read in
  partial kinetic energy density read in
  atomic valenz-charges read in
  non local Contribution for L=           0  read in
    real space projection operators read in
  non local Contribution for L=           0  read in
    real space projection operators read in
  non local Contribution for L=           1  read in
    real space projection operators read in
  non local Contribution for L=           1  read in
    real space projection operators read in
    PAW grid and wavefunctions read in
 
   number of l-projection  operators is LMAX  =           4
   number of lm-projection operators is LMMAX =           8
 
 POTCAR:    PAW_PBE O_h 06Feb2004                 
   VRHFIN =O: s2p4                                                                                  
   LEXCH  = PE                                                                                      
   EATOM  =   432.3788 eV,   31.7789 Ry                                                             
                                                                                                    
   TITEL  = PAW_PBE O_h 06Feb2004                                                                   
   LULTRA =        F    use ultrasoft PP ?                                                          
   IUNSCR =        1    unscreen: 0-lin 1-nonlin 2-no                                               
   RPACOR =    0.800    partial core radius                                                         
   POMASS =   16.000; ZVAL   =    6.000    mass and valenz                                          
   RCORE  =    1.100    outmost cutoff radius                                                       
   RWIGS  =    1.400; RWIGS  =    0.741    wigner-seitz radius (au A)                               
   ENMAX  =  700.000; ENMIN  =  500.000 eV                                                          
   ICORE  =        2    local potential                                                             
   LCOR   =        T    correct aug charges                                                         
   LPAW   =        T    paw PP                                                                      
   EAUG   =  888.804                                                                                
   DEXC   =    0.000                                                                                
   RMAX   =    1.128    core radius for proj-oper                                                   
   RAUG   =    1.300    factor for augmentation sphere                                              
   RDEP   =    1.125    radius for radial grids                                                     
   RDEPT  =    1.088    core radius for aug-charge                                                  
                                                                                                    
   Atomic configuration                                                                             
    4 entries                                                                                       
     n  l   j            E        occ.                                                              
     1  0  0.50      -514.6923   2.0000                                                             
     2  0  0.50       -23.9615   2.0000                                                             
     2  1  0.50        -9.0305   4.0000                                                             
     3  2  1.50        -9.5241   0.0000                                                             
   Description                                                                                      
     l       E           TYP  RCUT    TYP  RCUT                                                     
     0    -23.9615319     23  1.100                                                                 
     0    -25.3221145     23  1.100                                                                 
     1     -9.0304911     23  1.100                                                                 
     1     -5.4802209     23  1.100                                                                 
     2     -9.5240782      7  1.100                                                                 
  local pseudopotential read in
  partial core-charges read in
  partial kinetic energy density read in
  atomic valenz-charges read in
  non local Contribution for L=           0  read in
    real space projection operators read in
  non local Contribution for L=           0  read in
    real space projection operators read in
  non local Contribution for L=           1  read in
    real space projection operators read in
  non local Contribution for L=           1  read in
    real space projection operators read in
    PAW grid and wavefunctions read in
 
   number of l-projection  operators is LMAX  =           4
   number of lm-projection operators is LMMAX =           8
 
 -----------------------------------------------------------------------------
|                                                                             |
|               ----> ADVICE to this user running VASP <----                  |
|                                                                             |
|     You have a (more or less) 'large supercell' and for larger cells it     |
|     might be more efficient to use real-space projection operators.         |
|     Therefore, try LREAL= Auto in the INCAR file.                           |
|     Mind: For very accurate calculation, you might also keep the            |
|     reciprocal projection scheme (i.e. LREAL=.FALSE.).                      |
|                                                                             |
 -----------------------------------------------------------------------------

  PAW_PBE C_h 06Feb2004                 :
 energy of atom  1       EATOM= -147.1560
 kinetic energy error for atom=    0.0031 (will be added to EATOM!!)
  PAW_PBE O_h 06Feb2004                 :
 energy of atom  2       EATOM= -432.3788
 kinetic energy error for atom=    0.0171 (will be added to EATOM!!)
 
 
 POSCAR:  C  O
  positions in cartesian coordinates
  No initial velocities read in

 METAGGA = SCAN     LMAXTAU =  6    LMIXTAU =  F

 exchange correlation table for  LEXCH =        8
   RHO(1)=    0.500       N(1)  =     2000
   RHO(2)=  100.500       N(2)  =     4000
 


--------------------------------------------------------------------------------------------------------


 ion  position               nearest neighbor table
   1  0.972  0.000  0.001-  50 1.42   2 1.42  42 1.42
   2  0.039  0.134  0.001-   5 1.42   7 1.42   1 1.42
   3  0.172  0.000  0.001-  42 1.42  44 1.42   4 1.42
   4  0.239  0.134  0.000-   7 1.42   3 1.42  23 1.42
   5  0.972  0.200  0.001-   6 1.42   2 1.42  34 1.42
   6  0.039  0.334  0.001-   5 1.42  21 1.42  11 1.42
   7  0.172  0.200  0.000-   8 1.42   2 1.42   4 1.42
   8  0.239  0.334  0.000-  13 1.42   7 1.42  21 1.42
   9  0.372  0.000  0.001-  10 1.42  44 1.42  46 1.42
  10  0.439  0.134  0.000-  27 1.42   9 1.42  23 1.42
  11  0.972  0.400  0.001-  12 1.42  36 1.42   6 1.42
  12  0.039  0.534  0.001-  25 1.42  11 1.42  17 1.42
  13  0.372  0.400  0.000-   8 1.42  14 1.42  24 1.42
  14  0.439  0.534  0.000-  13 1.42  29 1.42  19 1.42
  15  0.572  0.000  0.001-  46 1.42  16 1.42  48 1.42
  16  0.639  0.134  0.001-  15 1.42  35 1.42  27 1.42
  17  0.972  0.600  0.001-  38 1.42  18 1.42  12 1.42
  18  0.039  0.734  0.001-  43 1.42  41 1.42  17 1.42
  19  0.572  0.600  0.001-  14 1.42  20 1.42  32 1.42
  20  0.639  0.734  0.001-  49 1.42  19 1.42  47 1.42
  21  0.172  0.400  0.000-  22 1.42   8 1.42   6 1.42
  22  0.239  0.534  0.000-  21 1.42  29 1.42  25 1.42
  23  0.372  0.200  0.000-  10 1.42   4 1.42  24 1.42
  24  0.439  0.334  0.000-  13 1.42  31 1.42  23 1.42
  25  0.172  0.600  0.001-  26 1.42  12 1.42  22 1.42
  26  0.239  0.734  0.001-  25 1.42  45 1.42  43 1.42
  27  0.572  0.200  0.001-  10 1.42  28 1.42  16 1.42
  28  0.639  0.334  0.001-  27 1.42  37 1.42  31 1.42
  29  0.372  0.600  0.000-  22 1.42  14 1.42  30 1.42
  30  0.439  0.734  0.001-  47 1.42  29 1.42  45 1.42
  31  0.572  0.400  0.000-  32 1.42  28 1.42  24 1.42
  32  0.639  0.534  0.001-  31 1.42  39 1.42  19 1.42
  33  0.772  0.000  0.001-  34 1.42  48 1.42  50 1.42
  34  0.839  0.134  0.001-  33 1.42   5 1.42  35 1.42
  35  0.772  0.200  0.001-  36 1.42  16 1.42  34 1.42
  36  0.839  0.334  0.001-  35 1.42  11 1.42  37 1.42
  37  0.772  0.400  0.001-  28 1.42  38 1.42  36 1.42
  38  0.839  0.534  0.001-  17 1.42  37 1.42  39 1.42
  39  0.772  0.600  0.001-  40 1.42  38 1.42  32 1.42
  40  0.839  0.734  0.001-  39 1.42  49 1.42  41 1.42
  41  0.972  0.800  0.001-  18 1.42  42 1.42  40 1.42
  42  0.039  0.934  0.001-   3 1.42  41 1.42   1 1.42
  43  0.172  0.800  0.001-  18 1.42  44 1.42  26 1.42
  44  0.239  0.934  0.001-   9 1.42  43 1.42   3 1.42
  45  0.372  0.800  0.001-  26 1.42  46 1.42  30 1.42
  46  0.439  0.934  0.001-  15 1.42  45 1.42   9 1.42
  47  0.572  0.800  0.001-  30 1.42  48 1.42  20 1.42
  48  0.639  0.934  0.001-  47 1.42  33 1.42  15 1.42
  49  0.772  0.800  0.001-  50 1.42  20 1.42  40 1.42
  50  0.839  0.934  0.001-  49 1.42   1 1.42  33 1.42
  51  0.373  0.251  0.500-  52 1.18  53 1.18
  52  0.421  0.189  0.503-  51 1.18
  53  0.325  0.313  0.497-  51 1.18
 
  LATTYP: Found a hexagonal cell.
 ALAT       =    12.3250000000
 C/A-ratio  =     1.6227180527
  
  Lattice vectors:
  
 A1 = (  12.3250000000,   0.0000000000,   0.0000000000)
 A2 = (  -6.1625000000,  10.6737631016,   0.0000000000)
 A3 = (   0.0000000000,   0.0000000000,  20.0000000000)


Analysis of symmetry for initial positions (statically):
=====================================================================
 Subroutine PRICEL returns:
 Original cell was already a primitive cell.
 

 Routine SETGRP: Setting up the symmetry group for a 
 hexagonal supercell.


 Subroutine GETGRP returns: Found  1 space group operations
 (whereof  1 operations were pure point group operations)
 out of a pool of 24 trial point group operations.


The static configuration has the point symmetry C_1 .


Analysis of symmetry for dynamics (positions and initial velocities):
=====================================================================
 Subroutine PRICEL returns:
 Original cell was already a primitive cell.
 

 Routine SETGRP: Setting up the symmetry group for a 
 hexagonal supercell.


 Subroutine GETGRP returns: Found  1 space group operations
 (whereof  1 operations were pure point group operations)
 out of a pool of 24 trial point group operations.


The dynamic configuration has the point symmetry C_1 .


 Subroutine INISYM returns: Found  1 space group operations
 (whereof  1 operations are pure point group operations),
 and found     1 'primitive' translations


----------------------------------------------------------------------------------------

                                     Primitive cell                                     

  volume of cell :    2631.0826

  direct lattice vectors                    reciprocal lattice vectors
    12.325000000  0.000000000  0.000000000     0.081135903  0.046843835  0.000000000
    -6.162500000 10.673763102  0.000000000     0.000000000  0.093687670  0.000000000
     0.000000000  0.000000000 20.000000000     0.000000000  0.000000000  0.050000000

  length of vectors
    12.325000000 12.325000000 20.000000000     0.093687670  0.093687670  0.050000000

  position of ions in fractional coordinates (direct lattice)
     0.972450841  0.000320818  0.000708389
     0.039118382  0.133659505  0.000550216
     0.172443627  0.000295449  0.000624535
     0.239096278  0.133647917  0.000320585
     0.972452058  0.200322012  0.000606523
     0.039128360  0.333643771  0.000555187
     0.172451764  0.200354552  0.000273959
     0.239124359  0.333665720  0.000090325
     0.372465565  0.000324403  0.000567391
     0.439137473  0.133619939  0.000322923
     0.972449824  0.400309362  0.000684513
     0.039124981  0.533636789  0.000716763
     0.372416176  0.400329481  0.000000000
     0.439099602  0.533638981  0.000290518
     0.572443676  0.000312125  0.000699475
     0.639110207  0.133631751  0.000684093
     0.972452703  0.600305653  0.000800361
     0.039124495  0.733640359  0.000818141
     0.572433471  0.600306242  0.000503618
     0.639111888  0.733641879  0.000659881
     0.172454630  0.400318228  0.000361306
     0.239120185  0.533636548  0.000473136
     0.372459750  0.200295993  0.000111246
     0.439107096  0.333673419  0.000069702
     0.172452155  0.600311506  0.000655425
     0.239123371  0.733638574  0.000718912
     0.572431082  0.200289171  0.000516621
     0.639112773  0.333618630  0.000577970
     0.372439808  0.600308022  0.000453556
     0.439116090  0.733637858  0.000617737
     0.572469358  0.400320504  0.000424897
     0.639119408  0.533650873  0.000574513
     0.772445723  0.000315427  0.000745201
     0.839116277  0.133640203  0.000719132
     0.772440513  0.200307432  0.000726291
     0.839120241  0.333635728  0.000731834
     0.772446320  0.400298367  0.000728722
     0.839118980  0.533633964  0.000776376
     0.772456143  0.600308173  0.000744639
     0.839115033  0.733643180  0.000789390
     0.972455313  0.800305582  0.000815291
     0.039114714  0.933643289  0.000747563
     0.172457971  0.800312211  0.000779216
     0.239134551  0.933647193  0.000681063
     0.372451396  0.800316674  0.000689249
     0.439124489  0.933644769  0.000676788
     0.572441101  0.800310054  0.000668168
     0.639115067  0.933638985  0.000734556
     0.772445098  0.800313187  0.000752577
     0.839116614  0.933644338  0.000758538
     0.373021009  0.251226878  0.500000000
     0.420879805  0.189313152  0.503221093
     0.325156981  0.313167186  0.497027256

  ion indices of the primitive-cell ions
   primitive index   ion index
                 1           1
                 2           2
                 3           3
                 4           4
                 5           5
                 6           6
                 7           7
                 8           8
                 9           9
                10          10
                11          11
                12          12
                13          13
                14          14
                15          15
                16          16
                17          17
                18          18
                19          19
                20          20
                21          21
                22          22
                23          23
                24          24
                25          25
                26          26
                27          27
                28          28
                29          29
                30          30
                31          31
                32          32
                33          33
                34          34
                35          35
                36          36
                37          37
                38          38
                39          39
                40          40
                41          41
                42          42
                43          43
                44          44
                45          45
                46          46
                47          47
                48          48
                49          49
                50          50
                51          51
                52          52
                53          53

----------------------------------------------------------------------------------------

 
 
 KPOINTS: auto                                    

Automatic generation of k-mesh.
 Grid dimensions read from file:
 generate k-points for:    1    1    1

 Generating k-lattice:

  Cartesian coordinates                     Fractional coordinates (reciprocal lattice)
     0.081135903  0.046843835  0.000000000     1.000000000 -0.000000000  0.000000000
     0.000000000  0.093687670  0.000000000     0.000000000  1.000000000  0.000000000
     0.000000000  0.000000000  0.050000000     0.000000000  0.000000000  1.000000000

  Length of vectors
     0.093687670  0.093687670  0.050000000

  Shift w.r.t. Gamma in fractional coordinates (k-lattice)
     0.000000000  0.000000000  0.000000000

 
 Subroutine IBZKPT returns following result:
 ===========================================
 
 Found      1 irreducible k-points:
 
 Following reciprocal coordinates:
            Coordinates               Weight
  0.000000  0.000000  0.000000      1.000000
 
 Following cartesian coordinates:
            Coordinates               Weight
  0.000000  0.000000  0.000000      1.000000
 


--------------------------------------------------------------------------------------------------------




 Dimension of arrays:
   k-points           NKPTS =      1   k-points in BZ     NKDIM =      1   number of bands    NBANDS=    168
   number of dos      NEDOS =    301   number of ions     NIONS =     53
   non local maximal  LDIM  =      4   non local SUM 2l+1 LMDIM =      8
   total plane-waves  NPLWV = ******
   max r-space proj   IRMAX =      1   max aug-charges    IRDMAX=   9736
   dimension x,y,z NGX =   128 NGY =  128 NGZ =  210
   dimension x,y,z NGXF=   256 NGYF=  256 NGZF=  420
   support grid    NGXF=   256 NGYF=  256 NGZF=  420
   ions per type =              51   2
   NGX,Y,Z   is equivalent  to a cutoff of  17.27, 17.27, 17.46 a.u.
   NGXF,Y,Z  is equivalent  to a cutoff of  34.53, 34.53, 34.91 a.u.

 SYSTEM =  unknown system                          
 POSCAR =   C  O                                   

 Startparameter for this run:
   NWRITE =      2    write-flag & timer
   PREC   = accura    normal or accurate (medium, high low for compatibility)
   ISTART =      0    job   : 0-new  1-cont  2-samecut
   ICHARG =      2    charge: 1-file 2-atom 10-const
   ISPIN  =      1    spin polarized calculation?
   LNONCOLLINEAR =      F non collinear calculations
   LSORBIT =      F    spin-orbit coupling
   INIWAV =      1    electr: 0-lowe 1-rand  2-diag
   LASPH  =      T    aspherical Exc in radial PAW
 Electronic Relaxation 1
   ENCUT  = 1000.0 eV  73.50 Ry    8.57 a.u.  31.78 31.78 51.57*2*pi/ulx,y,z
   ENINI  = 1000.0     initial cutoff
   ENAUG  =  946.8 eV  augmentation charge cutoff
   NELM   =     60;   NELMIN=  2; NELMDL= -5     # of ELM steps 
   EDIFF  = 0.1E-06   stopping-criterion for ELM
   LREAL  =      F    real-space projection
   NLSPLINE    = F    spline interpolate recip. space projectors
   LCOMPAT=      F    compatible to vasp.4.4
   GGA_COMPAT  = T    GGA compatible to vasp.4.4-vasp.4.6
   LMAXPAW     = -100 max onsite density
   LMAXMIX     =    2 max onsite mixed and CHGCAR
   VOSKOWN=      0    Vosko Wilk Nusair interpolation
   ROPT   =    0.00000   0.00000
 Ionic relaxation
   EDIFFG = 0.1E-05   stopping-criterion for IOM
   NSW    =      0    number of steps for IOM
   NBLOCK =      1;   KBLOCK =      1    inner block; outer block 
   IBRION =     -1    ionic relax: 0-MD 1-quasi-New 2-CG
   NFREE  =      0    steps in history (QN), initial steepest desc. (CG)
   ISIF   =      0    stress and relaxation
   IWAVPR =     10    prediction:  0-non 1-charg 2-wave 3-comb
   ISYM   =      2    0-nonsym 1-usesym 2-fastsym
   LCORR  =      T    Harris-Foulkes like correction to forces

   POTIM  = 0.5000    time-step for ionic-motion
   TEIN   =    0.0    initial temperature
   TEBEG  =    0.0;   TEEND  =   0.0 temperature during run
   SMASS  =  -3.00    Nose mass-parameter (am)
   estimated Nose-frequenzy (Omega)   =  0.10E-29 period in steps = 0.13E+47 mass=  -0.347E-26a.u.
   SCALEE = 1.0000    scale energy and forces
   NPACO  =    256;   APACO  = 16.0  distance and # of slots for P.C.
   PSTRESS=    0.0 pullay stress

  Mass of Ions in am
   POMASS =  12.01 16.00
  Ionic Valenz
   ZVAL   =   4.00  6.00
  Atomic Wigner-Seitz radii
   RWIGS  =  -1.00 -1.00
  virtual crystal weights 
   VCA    =   1.00  1.00
   NELECT =     216.0000    total number of electrons
   NUPDOWN=      -1.0000    fix difference up-down

 DOS related values:
   EMIN   =  10.00;   EMAX   =-10.00  energy-range for DOS
   EFERMI =   0.00
   ISMEAR =     0;   SIGMA  =   0.01  broadening in eV -4-tet -1-fermi 0-gaus

 Electronic relaxation 2 (details)
   IALGO  =     58    algorithm
   LDIAG  =      T    sub-space diagonalisation (order eigenvalues)
   LSUBROT=      F    optimize rotation matrix (better conditioning)
   TURBO    =      0    0=normal 1=particle mesh
   IRESTART =      0    0=no restart 2=restart with 2 vectors
   NREBOOT  =      0    no. of reboots
   NMIN     =      0    reboot dimension
   EREF     =   0.00    reference energy to select bands
   IMIX   =      4    mixing-type and parameters
     AMIX     =   0.40;   BMIX     =  1.00
     AMIX_MAG =   1.60;   BMIX_MAG =  1.00
     AMIN     =   0.10
     WC   =   100.;   INIMIX=   1;  MIXPRE=   1;  MAXMIX= -45

 Intra band minimization:
   WEIMIN = 0.0000     energy-eigenvalue tresh-hold
   EBREAK =  0.15E-09  absolut break condition
   DEPER  =   0.30     relativ break condition  

   TIME   =   0.40     timestep for ELM

  volume/ion in A,a.u.               =      49.64       335.01
  Fermi-wavevector in a.u.,A,eV,Ry     =   0.711510  1.344560  6.887909  0.506247
  Thomas-Fermi vector in A             =   1.798641
 
 Write flags
   LWAVE        =      T    write WAVECAR
   LDOWNSAMPLE  =      F    k-point downsampling of WAVECAR
   LCHARG       =      T    write CHGCAR
   LVTOT        =      F    write LOCPOT, total local potential
   LVHAR        =      F    write LOCPOT, Hartree potential only
   LELF         =      F    write electronic localiz. function (ELF)
   LORBIT       =      0    0 simple, 1 ext, 2 COOP (PROOUT), +10 PAW based schemes


 Dipole corrections
   LMONO  =      F    monopole corrections only (constant potential shift)
   LDIPOL =      F    correct potential (dipole corrections)
   IDIPOL =      0    1-x, 2-y, 3-z, 4-all directions 
   EPSILON=  1.0000000 bulk dielectric constant

 Exchange correlation treatment:
   GGA     =    --    GGA type
   LEXCH   =     8    internal setting for exchange type
   VOSKOWN=      0    Vosko Wilk Nusair interpolation
   LHFCALC =     F    Hartree Fock is set to
   LHFONE  =     F    Hartree Fock one center treatment
   AEXX    =    0.0000 exact exchange contribution

 Linear response parameters
   LEPSILON=     F    determine dielectric tensor
   LRPA    =     F    only Hartree local field effects (RPA)
   LNABLA  =     F    use nabla operator in PAW spheres
   LVEL    =     F    velocity operator in full k-point grid
   LINTERFAST=   F  fast interpolation
   KINTER  =     0    interpolate to denser k-point grid
   CSHIFT  =0.1000    complex shift for real part using Kramers Kronig
   OMEGAMAX=  -1.0    maximum frequency
   DEG_THRESHOLD= 0.2000000E-02 threshold for treating states as degnerate
   RTIME   =   -0.100 relaxation time in fs
  (WPLASMAI=    0.000 imaginary part of plasma frequency in eV, 0.658/RTIME)
   DFIELD  = 0.0000000 0.0000000 0.0000000 field for delta impulse in time
 
 Orbital magnetization related:
   ORBITALMAG=     F  switch on orbital magnetization
   LCHIMAG   =     F  perturbation theory with respect to B field
   DQ        =  0.001000  dq finite difference perturbation B field
   LLRAUG    =     F  two centre corrections for induced B field



--------------------------------------------------------------------------------------------------------


 Static calculation
 charge density and potential will be updated during run
 non-spin polarized calculation
 Conjugate gradient for all bands (Freysoldt, et al. PRB 79, 241103 (2009))
 preconditioned conjugated gradient                                        
 perform sub-space diagonalisation
    before iterative eigenvector-optimisation
 modified Broyden-mixing scheme, WC =      100.0
 initial mixing is a Kerker type mixing with AMIX =  0.4000 and BMIX =      1.0000
 Hartree-type preconditioning will be used
 using additional bands           60
 reciprocal scheme for non local part
 use partial core corrections
 no Harris-corrections to forces 
 use gradient corrections 
 use of overlap-Matrix (Vanderbilt PP)
 Gauss-broadening in eV      SIGMA  =   0.01


--------------------------------------------------------------------------------------------------------


  energy-cutoff  :     1000.00
  volume of cell :     2631.08
      direct lattice vectors                 reciprocal lattice vectors
    12.325000000  0.000000000  0.000000000     0.081135903  0.046843835  0.000000000
    -6.162500000 10.673763102  0.000000000     0.000000000  0.093687670  0.000000000
     0.000000000  0.000000000 20.000000000     0.000000000  0.000000000  0.050000000

  length of vectors
    12.325000000 12.325000000 20.000000000     0.093687670  0.093687670  0.050000000


 
 k-points in units of 2pi/SCALE and weight: auto                                    
   0.00000000  0.00000000  0.00000000       1.000
 
 k-points in reciprocal lattice and weights: auto                                    
   0.00000000  0.00000000  0.00000000       1.000
 
 position of ions in fractional coordinates (direct lattice) 
   0.97245084  0.00032082  0.00070839
   0.03911838  0.13365950  0.00055022
   0.17244363  0.00029545  0.00062454
   0.23909628  0.13364792  0.00032058
   0.97245206  0.20032201  0.00060652
   0.03912836  0.33364377  0.00055519
   0.17245176  0.20035455  0.00027396
   0.23912436  0.33366572  0.00009033
   0.37246557  0.00032440  0.00056739
   0.43913747  0.13361994  0.00032292
   0.97244982  0.40030936  0.00068451
   0.03912498  0.53363679  0.00071676
   0.37241618  0.40032948  0.00000000
   0.43909960  0.53363898  0.00029052
   0.57244368  0.00031213  0.00069947
   0.63911021  0.13363175  0.00068409
   0.97245270  0.60030565  0.00080036
   0.03912449  0.73364036  0.00081814
   0.57243347  0.60030624  0.00050362
   0.63911189  0.73364188  0.00065988
   0.17245463  0.40031823  0.00036131
   0.23912018  0.53363655  0.00047314
   0.37245975  0.20029599  0.00011125
   0.43910710  0.33367342  0.00006970
   0.17245216  0.60031151  0.00065542
   0.23912337  0.73363857  0.00071891
   0.57243108  0.20028917  0.00051662
   0.63911277  0.33361863  0.00057797
   0.37243981  0.60030802  0.00045356
   0.43911609  0.73363786  0.00061774
   0.57246936  0.40032050  0.00042490
   0.63911941  0.53365087  0.00057451
   0.77244572  0.00031543  0.00074520
   0.83911628  0.13364020  0.00071913
   0.77244051  0.20030743  0.00072629
   0.83912024  0.33363573  0.00073183
   0.77244632  0.40029837  0.00072872
   0.83911898  0.53363396  0.00077638
   0.77245614  0.60030817  0.00074464
   0.83911503  0.73364318  0.00078939
   0.97245531  0.80030558  0.00081529
   0.03911471  0.93364329  0.00074756
   0.17245797  0.80031221  0.00077922
   0.23913455  0.93364719  0.00068106
   0.37245140  0.80031667  0.00068925
   0.43912449  0.93364477  0.00067679
   0.57244110  0.80031005  0.00066817
   0.63911507  0.93363899  0.00073456
   0.77244510  0.80031319  0.00075258
   0.83911661  0.93364434  0.00075854
   0.37302101  0.25122688  0.50000000
   0.42087980  0.18931315  0.50322109
   0.32515698  0.31316719  0.49702726
 
 position of ions in cartesian coordinates  (Angst):
  11.98347958  0.00342433  0.01416777
  -0.34154264  1.42664989  0.01100432
   2.12354700  0.00315355  0.01249070
   2.12325634  1.42652621  0.00641170
  10.75098721  2.13818970  0.01213047
  -1.57382270  3.56123457  0.01110375
   0.89078307  2.13853702  0.00547917
   0.89099273  3.56146885  0.00180651
   4.58863896  0.00346260  0.01134782
   4.58893648  1.42622757  0.00645846
   9.51853763  4.27280730  0.01369027
  -2.80632132  5.69591267  0.01433526
   2.12299894  4.27302204  0.00000000
   2.12335237  5.69593607  0.00581036
   7.05344483  0.00333155  0.01398950
   7.05352764  1.42635365  0.01368187
   8.28609598  6.40752033  0.01600723
  -4.03884931  7.83070339  0.01636283
   3.35585531  6.40752662  0.01007237
   3.35598594  7.83071962  0.01319763
  -0.34145776  4.27290193  0.00722612
  -0.34137895  5.69591010  0.00946273
   3.35624236  2.13791198  0.00222492
   3.35573251  3.56155103  0.00139405
  -1.57394684  6.40758280  0.01310850
  -1.57385216  7.83068434  0.01437823
   5.82093107  2.13783916  0.01033241
   5.82114012  3.56096622  0.01155939
   0.89092245  6.40754561  0.00907111
   0.89106251  7.83067670  0.01235474
   4.58870974  4.27292622  0.00849795
   4.58852320  5.69606300  0.01149026
   9.51844972  0.00336679  0.01490402
   9.51855036  1.42644387  0.01438264
   8.28593477  2.13803408  0.01452582
   8.28612680  3.56114872  0.01463668
   7.05356221  4.27268994  0.01457444
   7.05362213  5.69588251  0.01552751
   5.82112285  6.40754723  0.01489279
   5.82101669  7.83073350  0.01578780
   7.05362858  8.54227219  0.01630582
  -5.27148792  9.96548729  0.01495127
  -2.80637951  8.54234295  0.01558431
  -2.80626749  9.96552896  0.01362126
  -0.34148805  8.54239058  0.01378498
  -0.34137657  9.96550309  0.01353576
   2.12342586  8.54231992  0.01336337
   2.12354296  9.96544135  0.01469111
   4.58845581  8.54235337  0.01505154
   4.58852904  9.96549848  0.01517076
   3.04929830  2.68153618 10.00000000
   4.02070129  2.02068374 10.06442186
   2.07766701  3.34267235  9.94054513
 


--------------------------------------------------------------------------------------------------------


 k-point   1 :   0.0000 0.0000 0.0000  plane waves:  189031

 maximum and minimum number of plane-waves per node :    189031   189031

 maximum number of plane-waves:    189031
 maximum index in each direction: 
   IXMAX=   31   IYMAX=   31   IZMAX=   51
   IXMIN=  -31   IYMIN=  -31   IZMIN=  -51


 serial   3D FFT for wavefunctions
 parallel 3D FFT for charge:
    minimum data exchange during FFTs selected (reduces bandwidth)


 total amount of memory used by VASP MPI-rank0   556209. kBytes
=======================================================================

   base      :      30000. kBytes
   nonl-proj :     184518. kBytes
   fftplans  :      31725. kBytes
   grid      :     282516. kBytes
   one-center:        162. kBytes
   wavefun   :      27288. kBytes
 
     INWAV:  cpu time    0.0000: real time    0.0000
 Broyden mixing: mesh for mixing (old mesh)
   NGX = 63   NGY = 63   NGZ =103
  (NGX  =256   NGY  =256   NGZ  =420)
  gives a total of 408807 points

 initial charge density was supplied:
 charge density of overlapping atoms calculated
 number of electron     216.0000000 magnetization 
 keeping initial charge density in first step


--------------------------------------------------------------------------------------------------------


 Maximum index for augmentation-charges          459 (set IRDMAX)


--------------------------------------------------------------------------------------------------------


 First call to EWALD:  gamma=   0.128
 Maximum number of real-space cells 3x 3x 2
 Maximum number of reciprocal cells 3x 3x 4

    FEWALD:  cpu time    0.0031: real time    0.0031


--------------------------------------- Iteration      1(   1)  ---------------------------------------


    POTLOK:  cpu time    1.4652: real time    1.4761
    SETDIJ:  cpu time    0.2317: real time    0.2326
    TRIAL :  cpu time   21.7964: real time   21.9796
    CORREC:  cpu time    0.0005: real time    0.0005
    --------------------------------------------
      LOOP:  cpu time   23.5024: real time   23.7126

 eigenvalue-minimisations  :   336
 total energy-change (2. order) : 0.2407587E+04  (-0.1180636E+05)
 number of electron     216.0000000 magnetization 
 augmentation part      216.0000000 magnetization 

 Free energy of the ion-electron system (eV)
  ---------------------------------------------------
  alpha Z        PSCENC =        59.93625244
  Ewald energy   TEWEN  =     29209.91244113
  -Hartree energ DENC   =    -35385.37092715
  -exchange      EXHF   =         0.00000000
  -V(xc)+E(xc)   XCENC  =       602.79947654
  PAW double counting   =      6339.73130699    -6197.22120962
  entropy T*S    EENTRO =        -0.00019312
  eigenvalues    EBANDS =      -591.72339731
  atomic energy  EATOM  =      8369.52358910
  ---------------------------------------------------
  free energy    TOTEN  =      2407.58733901 eV

  energy without entropy =     2407.58753212  energy(sigma->0) =     2407.58743557


--------------------------------------------------------------------------------------------------------




--------------------------------------- Iteration      1(   2)  ---------------------------------------


    TRIAL :  cpu time   30.9754: real time   31.2337
    CORREC:  cpu time    0.0001: real time    0.0001
    --------------------------------------------
      LOOP:  cpu time   31.1162: real time   31.3800

 eigenvalue-minimisations  :   560
 total energy-change (2. order) :-0.2438270E+04  (-0.2308527E+04)
 number of electron     216.0000000 magnetization 
 augmentation part      216.0000000 magnetization 

 Free energy of the ion-electron system (eV)
  ---------------------------------------------------
  alpha Z        PSCENC =        59.93625244
  Ewald energy   TEWEN  =     29209.91244113
  -Hartree energ DENC   =    -35385.37092715
  -exchange      EXHF   =         0.00000000
  -V(xc)+E(xc)   XCENC  =       602.79947654
  PAW double counting   =      6339.73130699    -6197.22120962
  entropy T*S    EENTRO =        -0.00000000
  eigenvalues    EBANDS =     -3029.99343360
  atomic energy  EATOM  =      8369.52358910
  ---------------------------------------------------
  free energy    TOTEN  =       -30.68250417 eV

  energy without entropy =      -30.68250417  energy(sigma->0) =      -30.68250417


--------------------------------------------------------------------------------------------------------




--------------------------------------- Iteration      1(   3)  ---------------------------------------


    TRIAL :  cpu time   24.0060: real time   24.2541
    CORREC:  cpu time    0.0001: real time    0.0003
    --------------------------------------------
      LOOP:  cpu time   24.0534: real time   24.3083

 eigenvalue-minimisations  :   392
 total energy-change (2. order) :-0.5625038E+03  (-0.5595037E+03)
 number of electron     216.0000000 magnetization 
 augmentation part      216.0000000 magnetization 

 Free energy of the ion-electron system (eV)
  ---------------------------------------------------
  alpha Z        PSCENC =        59.93625244
  Ewald energy   TEWEN  =     29209.91244113
  -Hartree energ DENC   =    -35385.37092715
  -exchange      EXHF   =         0.00000000
  -V(xc)+E(xc)   XCENC  =       602.79947654
  PAW double counting   =      6339.73130699    -6197.22120962
  entropy T*S    EENTRO =        -0.00000000
  eigenvalues    EBANDS =     -3592.49725384
  atomic energy  EATOM  =      8369.52358910
  ---------------------------------------------------
  free energy    TOTEN  =      -593.18632441 eV

  energy without entropy =     -593.18632441  energy(sigma->0) =     -593.18632441


--------------------------------------------------------------------------------------------------------




--------------------------------------- Iteration      1(   4)  ---------------------------------------


    TRIAL :  cpu time   26.3737: real time   26.5914
    CORREC:  cpu time    0.0001: real time    0.0001
    --------------------------------------------
      LOOP:  cpu time   26.4223: real time   26.6415

 eigenvalue-minimisations  :   448
 total energy-change (2. order) :-0.2654795E+02  (-0.2639433E+02)
 number of electron     216.0000000 magnetization 
 augmentation part      216.0000000 magnetization 

 Free energy of the ion-electron system (eV)
  ---------------------------------------------------
  alpha Z        PSCENC =        59.93625244
  Ewald energy   TEWEN  =     29209.91244113
  -Hartree energ DENC   =    -35385.37092715
  -exchange      EXHF   =         0.00000000
  -V(xc)+E(xc)   XCENC  =       602.79947654
  PAW double counting   =      6339.73130699    -6197.22120962
  entropy T*S    EENTRO =        -0.00000000
  eigenvalues    EBANDS =     -3619.04520159
  atomic energy  EATOM  =      8369.52358910
  ---------------------------------------------------
  free energy    TOTEN  =      -619.73427216 eV

  energy without entropy =     -619.73427216  energy(sigma->0) =     -619.73427216


--------------------------------------------------------------------------------------------------------




--------------------------------------- Iteration      1(   5)  ---------------------------------------


    TRIAL :  cpu time   21.7736: real time   21.9478
    CORREC:  cpu time    0.0001: real time    0.0001
    CHARGE:  cpu time    2.2901: real time    2.3080
    --------------------------------------------
      LOOP:  cpu time   24.1100: real time   24.3044

 eigenvalue-minimisations  :   336
 total energy-change (2. order) :-0.9189858E+00  (-0.9185359E+00)
 number of electron     216.0000000 magnetization 
 augmentation part       -0.4297601 magnetization 

 Free energy of the ion-electron system (eV)
  ---------------------------------------------------
  alpha Z        PSCENC =        59.93625244
  Ewald energy   TEWEN  =     29209.91244113
  -Hartree energ DENC   =    -35385.37092715
  -exchange      EXHF   =         0.00000000
  -V(xc)+E(xc)   XCENC  =       602.79947654
  PAW double counting   =      6339.73130699    -6197.22120962
  entropy T*S    EENTRO =        -0.00000000
  eigenvalues    EBANDS =     -3619.96418744
  atomic energy  EATOM  =      8369.52358910
  ---------------------------------------------------
  free energy    TOTEN  =      -620.65325801 eV

  energy without entropy =     -620.65325801  energy(sigma->0) =     -620.65325801


--------------------------------------------------------------------------------------------------------




--------------------------------------- Iteration      1(   6)  ---------------------------------------


    POTLOK:  cpu time    1.4458: real time    1.4619
    SETDIJ:  cpu time    0.2280: real time    0.2287
    TRIAL :  cpu time   15.4312: real time   15.5597
    CORREC:  cpu time    7.1030: real time    7.1586
    CHARGE:  cpu time    2.2875: real time    2.3065
    --------------------------------------------
      LOOP:  cpu time   26.5319: real time   26.7542

 eigenvalue-minimisations  :     0
 total energy-change (2. order) : 0.1041411E+03  (-0.1202940E+02)
 number of electron     216.0000000 magnetization 
 augmentation part       -0.4921713 magnetization 

 Free energy of the ion-electron system (eV)
  ---------------------------------------------------
  alpha Z        PSCENC =        59.93625244
  Ewald energy   TEWEN  =     29209.91244113
  -Hartree energ DENC   =    -36717.31837140
  -exchange      EXHF   =         0.00000000
  -V(xc)+E(xc)   XCENC  =       669.77142213
  PAW double counting   =    113756.95027023  -113620.18664073
  entropy T*S    EENTRO =        -0.00000000
  eigenvalues    EBANDS =     -2245.10109645
  atomic energy  EATOM  =      8369.52358910
  ---------------------------------------------------
  free energy    TOTEN  =      -516.51213355 eV

  energy without entropy =     -516.51213355  energy(sigma->0) =     -516.51213355


--------------------------------------------------------------------------------------------------------




--------------------------------------- Iteration      1(   7)  ---------------------------------------


    POTLOK:  cpu time    1.4359: real time    1.4435
    SETDIJ:  cpu time    0.2288: real time    0.2296
    TRIAL :  cpu time   15.4165: real time   15.5640
    CORREC:  cpu time    7.1023: real time    7.1572
    CHARGE:  cpu time    2.2899: real time    2.3064
    --------------------------------------------
      LOOP:  cpu time   26.5430: real time   26.7738

 eigenvalue-minimisations  :     0
 total energy-change (2. order) :-0.1204398E+02  (-0.1607339E+01)
 number of electron     216.0000000 magnetization 
 augmentation part       -0.5232986 magnetization 

 Free energy of the ion-electron system (eV)
  ---------------------------------------------------
  alpha Z        PSCENC =        59.93625244
  Ewald energy   TEWEN  =     29209.91244113
  -Hartree energ DENC   =    -36301.01757499
  -exchange      EXHF   =         0.00000000
  -V(xc)+E(xc)   XCENC  =       649.95962766
  PAW double counting   =    132048.48375187  -131908.97229017
  entropy T*S    EENTRO =        -0.00000000
  eigenvalues    EBANDS =     -2656.38190769
  atomic energy  EATOM  =      8369.52358910
  ---------------------------------------------------
  free energy    TOTEN  =      -528.55611064 eV

  energy without entropy =     -528.55611064  energy(sigma->0) =     -528.55611064


--------------------------------------------------------------------------------------------------------




--------------------------------------- Iteration      1(   8)  ---------------------------------------


    POTLOK:  cpu time    1.4426: real time    1.4503
    SETDIJ:  cpu time    0.2277: real time    0.2284
    TRIAL :  cpu time   15.4682: real time   15.5805
    CORREC:  cpu time    7.1119: real time    7.1603
    CHARGE:  cpu time    2.2851: real time    2.3017
    --------------------------------------------
      LOOP:  cpu time   26.5529: real time   26.7409

 eigenvalue-minimisations  :     0
 total energy-change (2. order) :-0.1607187E+01  (-0.5407671E+00)
 number of electron     216.0000000 magnetization 
 augmentation part       -0.5209162 magnetization 

 Free energy of the ion-electron system (eV)
  ---------------------------------------------------
  alpha Z        PSCENC =        59.93625244
  Ewald energy   TEWEN  =     29209.91244113
  -Hartree energ DENC   =    -36269.98120012
  -exchange      EXHF   =         0.00000000
  -V(xc)+E(xc)   XCENC  =       648.34275446
  PAW double counting   =    140099.43984712  -139959.44248763
  entropy T*S    EENTRO =        -0.00000000
  eigenvalues    EBANDS =     -2687.89449422
  atomic energy  EATOM  =      8369.52358910
  ---------------------------------------------------
  free energy    TOTEN  =      -530.16329772 eV

  energy without entropy =     -530.16329772  energy(sigma->0) =     -530.16329772


--------------------------------------------------------------------------------------------------------




--------------------------------------- Iteration      1(   9)  ---------------------------------------


    POTLOK:  cpu time    1.4353: real time    1.4430
    SETDIJ:  cpu time    0.2318: real time    0.2326
    TRIAL :  cpu time   15.4409: real time   15.5680
    CORREC:  cpu time    7.0999: real time    7.1523
    CHARGE:  cpu time    2.2846: real time    2.3078
    --------------------------------------------
      LOOP:  cpu time   26.5260: real time   26.7530

 eigenvalue-minimisations  :     0
 total energy-change (2. order) :-0.5402853E+00  (-0.2176695E+00)
 number of electron     216.0000000 magnetization 
 augmentation part       -0.5150711 magnetization 

 Free energy of the ion-electron system (eV)
  ---------------------------------------------------
  alpha Z        PSCENC =        59.93625244
  Ewald energy   TEWEN  =     29209.91244113
  -Hartree energ DENC   =    -36276.93518630
  -exchange      EXHF   =         0.00000000
  -V(xc)+E(xc)   XCENC  =       648.05239140
  PAW double counting   =    146498.65756244  -146358.45374300
  entropy T*S    EENTRO =        -0.00000000
  eigenvalues    EBANDS =     -2681.39689021
  atomic energy  EATOM  =      8369.52358910
  ---------------------------------------------------
  free energy    TOTEN  =      -530.70358300 eV

  energy without entropy =     -530.70358300  energy(sigma->0) =     -530.70358300


--------------------------------------------------------------------------------------------------------




--------------------------------------- Iteration      1(  10)  ---------------------------------------


    POTLOK:  cpu time    1.4397: real time    1.4472
    SETDIJ:  cpu time    0.2343: real time    0.2350
    TRIAL :  cpu time   15.4233: real time   15.5643
    CORREC:  cpu time    7.1162: real time    7.1638
    CHARGE:  cpu time    2.2841: real time    2.3003
    --------------------------------------------
      LOOP:  cpu time   26.5762: real time   26.7921

 eigenvalue-minimisations  :     0
 total energy-change (2. order) :-0.2173023E+00  (-0.9281123E-01)
 number of electron     216.0000000 magnetization 
 augmentation part       -0.5080246 magnetization 

 Free energy of the ion-electron system (eV)
  ---------------------------------------------------
  alpha Z        PSCENC =        59.93625244
  Ewald energy   TEWEN  =     29209.91244113
  -Hartree energ DENC   =    -36276.50757351
  -exchange      EXHF   =         0.00000000
  -V(xc)+E(xc)   XCENC  =       647.82288917
  PAW double counting   =    149016.50353305  -148876.19575891
  entropy T*S    EENTRO =        -0.00000000
  eigenvalues    EBANDS =     -2681.91625780
  atomic energy  EATOM  =      8369.52358910
  ---------------------------------------------------
  free energy    TOTEN  =      -530.92088533 eV

  energy without entropy =     -530.92088533  energy(sigma->0) =     -530.92088533


--------------------------------------------------------------------------------------------------------




--------------------------------------- Iteration      1(  11)  ---------------------------------------


    POTLOK:  cpu time    1.4479: real time    1.4563
    SETDIJ:  cpu time    0.2266: real time    0.2274
    TRIAL :  cpu time   15.4756: real time   15.5967
    CORREC:  cpu time    7.1149: real time    7.1619
    CHARGE:  cpu time    2.2819: real time    2.2981
    --------------------------------------------
      LOOP:  cpu time   26.6041: real time   26.7987

 eigenvalue-minimisations  :     0
 total energy-change (2. order) :-0.9260650E-01  (-0.3635421E-01)
 number of electron     216.0000000 magnetization 
 augmentation part       -0.5037997 magnetization 

 Free energy of the ion-electron system (eV)
  ---------------------------------------------------
  alpha Z        PSCENC =        59.93625244
  Ewald energy   TEWEN  =     29209.91244113
  -Hartree energ DENC   =    -36270.62511582
  -exchange      EXHF   =         0.00000000
  -V(xc)+E(xc)   XCENC  =       647.67908442
  PAW double counting   =    148817.40276218  -148677.09563796
  entropy T*S    EENTRO =        -0.00000000
  eigenvalues    EBANDS =     -2687.74686732
  atomic energy  EATOM  =      8369.52358910
  ---------------------------------------------------
  free energy    TOTEN  =      -531.01349183 eV

  energy without entropy =     -531.01349183  energy(sigma->0) =     -531.01349183


--------------------------------------------------------------------------------------------------------




--------------------------------------- Iteration      1(  12)  ---------------------------------------


    POTLOK:  cpu time    1.4439: real time    1.4512
    SETDIJ:  cpu time    0.2324: real time    0.2335
    TRIAL :  cpu time   15.4606: real time   15.5757
    CORREC:  cpu time    7.1221: real time    7.1768
    CHARGE:  cpu time    2.2824: real time    2.2984
    --------------------------------------------
      LOOP:  cpu time   26.5867: real time   26.7831

 eigenvalue-minimisations  :     0
 total energy-change (2. order) :-0.3631581E-01  (-0.1139589E-01)
 number of electron     216.0000000 magnetization 
 augmentation part       -0.5037172 magnetization 

 Free energy of the ion-electron system (eV)
  ---------------------------------------------------
  alpha Z        PSCENC =        59.93625244
  Ewald energy   TEWEN  =     29209.91244113
  -Hartree energ DENC   =    -36265.86907111
  -exchange      EXHF   =         0.00000000
  -V(xc)+E(xc)   XCENC  =       647.57997070
  PAW double counting   =    148016.75636200  -147876.47848711
  entropy T*S    EENTRO =        -0.00000000
  eigenvalues    EBANDS =     -2692.41086479
  atomic energy  EATOM  =      8369.52358910
  ---------------------------------------------------
  free energy    TOTEN  =      -531.04980764 eV

  energy without entropy =     -531.04980764  energy(sigma->0) =     -531.04980764


--------------------------------------------------------------------------------------------------------




--------------------------------------- Iteration      1(  13)  ---------------------------------------


    POTLOK:  cpu time    1.4473: real time    1.4553
    SETDIJ:  cpu time    0.2286: real time    0.2294
    TRIAL :  cpu time   15.4649: real time   15.5802
    CORREC:  cpu time    7.1072: real time    7.1675
    CHARGE:  cpu time    2.2848: real time    2.3015
    --------------------------------------------
      LOOP:  cpu time   26.5700: real time   26.8113

 eigenvalue-minimisations  :     0
 total energy-change (2. order) :-0.1140652E-01  (-0.3098614E-02)
 number of electron     216.0000000 magnetization 
 augmentation part       -0.5044122 magnetization 

 Free energy of the ion-electron system (eV)
  ---------------------------------------------------
  alpha Z        PSCENC =        59.93625244
  Ewald energy   TEWEN  =     29209.91244113
  -Hartree energ DENC   =    -36264.47755284
  -exchange      EXHF   =         0.00000000
  -V(xc)+E(xc)   XCENC  =       647.53482133
  PAW double counting   =    147422.42658643  -147282.16350327
  entropy T*S    EENTRO =        -0.00000000
  eigenvalues    EBANDS =     -2693.75384848
  atomic energy  EATOM  =      8369.52358910
  ---------------------------------------------------
  free energy    TOTEN  =      -531.06121416 eV

  energy without entropy =     -531.06121416  energy(sigma->0) =     -531.06121416


--------------------------------------------------------------------------------------------------------




--------------------------------------- Iteration      1(  14)  ---------------------------------------


    POTLOK:  cpu time    1.4433: real time    1.4513
    SETDIJ:  cpu time    0.2328: real time    0.2336
    TRIAL :  cpu time   15.4190: real time   15.5705
    CORREC:  cpu time    7.1153: real time    7.1652
    CHARGE:  cpu time    2.2872: real time    2.3135
    --------------------------------------------
      LOOP:  cpu time   26.5353: real time   26.7792

 eigenvalue-minimisations  :     0
 total energy-change (2. order) :-0.3104044E-02  (-0.8375309E-03)
 number of electron     216.0000000 magnetization 
 augmentation part       -0.5047425 magnetization 

 Free energy of the ion-electron system (eV)
  ---------------------------------------------------
  alpha Z        PSCENC =        59.93625244
  Ewald energy   TEWEN  =     29209.91244113
  -Hartree energ DENC   =    -36264.50430368
  -exchange      EXHF   =         0.00000000
  -V(xc)+E(xc)   XCENC  =       647.53240554
  PAW double counting   =    147158.26553823  -147018.00854112
  entropy T*S    EENTRO =        -0.00000000
  eigenvalues    EBANDS =     -2693.72169984
  atomic energy  EATOM  =      8369.52358910
  ---------------------------------------------------
  free energy    TOTEN  =      -531.06431820 eV

  energy without entropy =     -531.06431820  energy(sigma->0) =     -531.06431820


--------------------------------------------------------------------------------------------------------




--------------------------------------- Iteration      1(  15)  ---------------------------------------


    POTLOK:  cpu time    1.4442: real time    1.4518
    SETDIJ:  cpu time    0.2358: real time    0.2365
    TRIAL :  cpu time   15.4442: real time   15.5638
    CORREC:  cpu time    7.1345: real time    7.1833
    CHARGE:  cpu time    2.2916: real time    2.3078
    --------------------------------------------
      LOOP:  cpu time   26.6064: real time   26.8021

 eigenvalue-minimisations  :     0
 total energy-change (2. order) :-0.8380655E-03  (-0.2500147E-03)
 number of electron     216.0000000 magnetization 
 augmentation part       -0.5049022 magnetization 

 Free energy of the ion-electron system (eV)
  ---------------------------------------------------
  alpha Z        PSCENC =        59.93625244
  Ewald energy   TEWEN  =     29209.91244113
  -Hartree energ DENC   =    -36264.41875974
  -exchange      EXHF   =         0.00000000
  -V(xc)+E(xc)   XCENC  =       647.53361493
  PAW double counting   =    147053.05809055  -146912.80372097
  entropy T*S    EENTRO =        -0.00000000
  eigenvalues    EBANDS =     -2693.80666373
  atomic energy  EATOM  =      8369.52358910
  ---------------------------------------------------
  free energy    TOTEN  =      -531.06515627 eV

  energy without entropy =     -531.06515627  energy(sigma->0) =     -531.06515627


--------------------------------------------------------------------------------------------------------




--------------------------------------- Iteration      1(  16)  ---------------------------------------


    POTLOK:  cpu time    1.4458: real time    1.4535
    SETDIJ:  cpu time    0.2300: real time    0.2307
    TRIAL :  cpu time   15.4488: real time   15.5636
    CORREC:  cpu time    7.1168: real time    7.1698
    CHARGE:  cpu time    2.2835: real time    2.2993
    --------------------------------------------
      LOOP:  cpu time   26.5845: real time   26.7786

 eigenvalue-minimisations  :     0
 total energy-change (2. order) :-0.2502422E-03  (-0.9303090E-04)
 number of electron     216.0000000 magnetization 
 augmentation part       -0.5049633 magnetization 

 Free energy of the ion-electron system (eV)
  ---------------------------------------------------
  alpha Z        PSCENC =        59.93625244
  Ewald energy   TEWEN  =     29209.91244113
  -Hartree energ DENC   =    -36264.33085038
  -exchange      EXHF   =         0.00000000
  -V(xc)+E(xc)   XCENC  =       647.53246061
  PAW double counting   =    146990.29419881  -146850.04045759
  entropy T*S    EENTRO =        -0.00000000
  eigenvalues    EBANDS =     -2693.89304063
  atomic energy  EATOM  =      8369.52358910
  ---------------------------------------------------
  free energy    TOTEN  =      -531.06540651 eV

  energy without entropy =     -531.06540651  energy(sigma->0) =     -531.06540651


--------------------------------------------------------------------------------------------------------




--------------------------------------- Iteration      1(  17)  ---------------------------------------


    POTLOK:  cpu time    1.4493: real time    1.4573
    SETDIJ:  cpu time    0.2277: real time    0.2285
    TRIAL :  cpu time   15.4514: real time   15.5745
    CORREC:  cpu time    7.1040: real time    7.1697
    CHARGE:  cpu time    2.2894: real time    2.3060
    --------------------------------------------
      LOOP:  cpu time   26.5393: real time   26.7704

 eigenvalue-minimisations  :     0
 total energy-change (2. order) :-0.9139790E-04  (-0.4426221E-04)
 number of electron     216.0000000 magnetization 
 augmentation part       -0.5050032 magnetization 

 Free energy of the ion-electron system (eV)
  ---------------------------------------------------
  alpha Z        PSCENC =        59.93625244
  Ewald energy   TEWEN  =     29209.91244113
  -Hartree energ DENC   =    -36264.49466140
  -exchange      EXHF   =         0.00000000
  -V(xc)+E(xc)   XCENC  =       647.54144049
  PAW double counting   =    146943.47285565  -146803.21996259
  entropy T*S    EENTRO =        -0.00000000
  eigenvalues    EBANDS =     -2693.73745273
  atomic energy  EATOM  =      8369.52358910
  ---------------------------------------------------
  free energy    TOTEN  =      -531.06549791 eV

  energy without entropy =     -531.06549791  energy(sigma->0) =     -531.06549791


--------------------------------------------------------------------------------------------------------




--------------------------------------- Iteration      1(  18)  ---------------------------------------


    POTLOK:  cpu time    1.4445: real time    1.4523
    SETDIJ:  cpu time    0.2324: real time    0.2332
    TRIAL :  cpu time   15.4403: real time   15.5690
    CORREC:  cpu time    7.1099: real time    7.1630
    CHARGE:  cpu time    2.2804: real time    2.2991
    --------------------------------------------
      LOOP:  cpu time   26.5446: real time   26.7574

 eigenvalue-minimisations  :     0
 total energy-change (2. order) :-0.4226310E-04  (-0.1891509E-04)
 number of electron     216.0000000 magnetization 
 augmentation part       -0.5050417 magnetization 

 Free energy of the ion-electron system (eV)
  ---------------------------------------------------
  alpha Z        PSCENC =        59.93625244
  Ewald energy   TEWEN  =     29209.91244113
  -Hartree energ DENC   =    -36264.58289903
  -exchange      EXHF   =         0.00000000
  -V(xc)+E(xc)   XCENC  =       647.54536335
  PAW double counting   =    146926.58770095  -146786.33455136
  entropy T*S    EENTRO =        -0.00000000
  eigenvalues    EBANDS =     -2693.65343676
  atomic energy  EATOM  =      8369.52358910
  ---------------------------------------------------
  free energy    TOTEN  =      -531.06554017 eV

  energy without entropy =     -531.06554017  energy(sigma->0) =     -531.06554017


--------------------------------------------------------------------------------------------------------




--------------------------------------- Iteration      1(  19)  ---------------------------------------


    POTLOK:  cpu time    1.4430: real time    1.4509
    SETDIJ:  cpu time    0.2340: real time    0.2349
    TRIAL :  cpu time   15.3972: real time   15.5564
    CORREC:  cpu time    7.1169: real time    7.1656
    CHARGE:  cpu time    2.2873: real time    2.3066
    --------------------------------------------
      LOOP:  cpu time   26.5553: real time   26.7946

 eigenvalue-minimisations  :     0
 total energy-change (2. order) :-0.1821751E-04  (-0.7637150E-05)
 number of electron     216.0000000 magnetization 
 augmentation part       -0.5050465 magnetization 

 Free energy of the ion-electron system (eV)
  ---------------------------------------------------
  alpha Z        PSCENC =        59.93625244
  Ewald energy   TEWEN  =     29209.91244113
  -Hartree energ DENC   =    -36264.57865868
  -exchange      EXHF   =         0.00000000
  -V(xc)+E(xc)   XCENC  =       647.54424448
  PAW double counting   =    146937.59841262  -146797.34447612
  entropy T*S    EENTRO =        -0.00000000
  eigenvalues    EBANDS =     -2693.65736336
  atomic energy  EATOM  =      8369.52358910
  ---------------------------------------------------
  free energy    TOTEN  =      -531.06555839 eV

  energy without entropy =     -531.06555839  energy(sigma->0) =     -531.06555839


--------------------------------------------------------------------------------------------------------




--------------------------------------- Iteration      1(  20)  ---------------------------------------


    POTLOK:  cpu time    1.4423: real time    1.4502
    SETDIJ:  cpu time    0.2347: real time    0.2355
    TRIAL :  cpu time   15.4370: real time   15.5765
    CORREC:  cpu time    7.1140: real time    7.1636
    CHARGE:  cpu time    2.2884: real time    2.3060
    --------------------------------------------
      LOOP:  cpu time   26.5664: real time   26.7966

 eigenvalue-minimisations  :     0
 total energy-change (2. order) :-0.7333496E-05  (-0.1820252E-05)
 number of electron     216.0000000 magnetization 
 augmentation part       -0.5050454 magnetization 

 Free energy of the ion-electron system (eV)
  ---------------------------------------------------
  alpha Z        PSCENC =        59.93625244
  Ewald energy   TEWEN  =     29209.91244113
  -Hartree energ DENC   =    -36264.61201144
  -exchange      EXHF   =         0.00000000
  -V(xc)+E(xc)   XCENC  =       647.54527256
  PAW double counting   =    146952.28411114  -146812.03005386
  entropy T*S    EENTRO =        -0.00000000
  eigenvalues    EBANDS =     -2693.62516678
  atomic energy  EATOM  =      8369.52358910
  ---------------------------------------------------
  free energy    TOTEN  =      -531.06556572 eV

  energy without entropy =     -531.06556572  energy(sigma->0) =     -531.06556572


--------------------------------------------------------------------------------------------------------




--------------------------------------- Iteration      1(  21)  ---------------------------------------


    POTLOK:  cpu time    1.4451: real time    1.4532
    SETDIJ:  cpu time    0.2300: real time    0.2308
    TRIAL :  cpu time   15.4283: real time   15.5779
    CORREC:  cpu time    7.1066: real time    7.1636
    CHARGE:  cpu time    2.2863: real time    2.3049
    --------------------------------------------
      LOOP:  cpu time   26.5497: real time   26.7845

 eigenvalue-minimisations  :     0
 total energy-change (2. order) :-0.1842040E-05  (-0.6579718E-06)
 number of electron     216.0000000 magnetization 
 augmentation part       -0.5050369 magnetization 

 Free energy of the ion-electron system (eV)
  ---------------------------------------------------
  alpha Z        PSCENC =        59.93625244
  Ewald energy   TEWEN  =     29209.91244113
  -Hartree energ DENC   =    -36264.60558108
  -exchange      EXHF   =         0.00000000
  -V(xc)+E(xc)   XCENC  =       647.54458356
  PAW double counting   =    146957.40796620  -146817.15386644
  entropy T*S    EENTRO =        -0.00000000
  eigenvalues    EBANDS =     -2693.63095247
  atomic energy  EATOM  =      8369.52358910
  ---------------------------------------------------
  free energy    TOTEN  =      -531.06556756 eV

  energy without entropy =     -531.06556756  energy(sigma->0) =     -531.06556756


--------------------------------------------------------------------------------------------------------




--------------------------------------- Iteration      1(  22)  ---------------------------------------


    POTLOK:  cpu time    1.4431: real time    1.4511
    SETDIJ:  cpu time    0.2331: real time    0.2340
    TRIAL :  cpu time   15.4503: real time   15.5662
    CORREC:  cpu time    7.0880: real time    7.1567
    CHARGE:  cpu time    2.2984: real time    2.3149
    --------------------------------------------
      LOOP:  cpu time   26.5758: real time   26.8244

 eigenvalue-minimisations  :     0
 total energy-change (2. order) :-0.5983457E-06  (-0.2640091E-06)
 number of electron     216.0000000 magnetization 
 augmentation part       -0.5050282 magnetization 

 Free energy of the ion-electron system (eV)
  ---------------------------------------------------
  alpha Z        PSCENC =        59.93625244
  Ewald energy   TEWEN  =     29209.91244113
  -Hartree energ DENC   =    -36264.59867040
  -exchange      EXHF   =         0.00000000
  -V(xc)+E(xc)   XCENC  =       647.54421112
  PAW double counting   =    146958.82072986  -146818.56668015
  entropy T*S    EENTRO =        -0.00000000
  eigenvalues    EBANDS =     -2693.63744125
  atomic energy  EATOM  =      8369.52358910
  ---------------------------------------------------
  free energy    TOTEN  =      -531.06556816 eV

  energy without entropy =     -531.06556816  energy(sigma->0) =     -531.06556816


--------------------------------------------------------------------------------------------------------




--------------------------------------- Iteration      1(  23)  ---------------------------------------


    POTLOK:  cpu time    1.4488: real time    1.4577
    SETDIJ:  cpu time    0.2261: real time    0.2270
    TRIAL :  cpu time   15.4514: real time   15.5636
    CORREC:  cpu time    7.1063: real time    7.1677
    CHARGE:  cpu time    2.2738: real time    2.2964
    --------------------------------------------
      LOOP:  cpu time   26.5418: real time   26.7888

 eigenvalue-minimisations  :     0
 total energy-change (2. order) :-0.2616434E-06  (-0.7857177E-07)
 number of electron     216.0000000 magnetization 
 augmentation part       -0.5050252 magnetization 

 Free energy of the ion-electron system (eV)
  ---------------------------------------------------
  alpha Z        PSCENC =        59.93625244
  Ewald energy   TEWEN  =     29209.91244113
  -Hartree energ DENC   =    -36264.59623806
  -exchange      EXHF   =         0.00000000
  -V(xc)+E(xc)   XCENC  =       647.54420345
  PAW double counting   =    146958.79241706  -146818.53844113
  entropy T*S    EENTRO =        -0.00000000
  eigenvalues    EBANDS =     -2693.63979242
  atomic energy  EATOM  =      8369.52358910
  ---------------------------------------------------
  free energy    TOTEN  =      -531.06556842 eV

  energy without entropy =     -531.06556842  energy(sigma->0) =     -531.06556842


--------------------------------------------------------------------------------------------------------




--------------------------------------- Iteration      1(  24)  ---------------------------------------


    POTLOK:  cpu time    1.4424: real time    1.4501
    SETDIJ:  cpu time    0.2355: real time    0.2363
    TRIAL :  cpu time   15.4655: real time   15.5769
    CORREC:  cpu time    7.1217: real time    7.1710
    EDDIAG:  cpu time    3.2015: real time    3.2257
    CHARGE:  cpu time    2.2769: real time    2.2966
    --------------------------------------------
      LOOP:  cpu time   29.8086: real time   30.0271

 eigenvalue-minimisations  :     0
 total energy-change (2. order) :-0.2226443E-07  (-0.3239273E-07)
 number of electron     216.0000000 magnetization 
 augmentation part       -0.5050244 magnetization 

 Free energy of the ion-electron system (eV)
  ---------------------------------------------------
  alpha Z        PSCENC =        59.93625244
  Ewald energy   TEWEN  =     29209.91244113
  -Hartree energ DENC   =    -36264.59331791
  -exchange      EXHF   =         0.00000000
  -V(xc)+E(xc)   XCENC  =       647.54408483
  PAW double counting   =    146958.93106066  -146818.67710646
  entropy T*S    EENTRO =        -0.00000000
  eigenvalues    EBANDS =     -2693.64257223
  atomic energy  EATOM  =      8369.52358910
  ---------------------------------------------------
  free energy    TOTEN  =      -531.06556845 eV

  energy without entropy =     -531.06556845  energy(sigma->0) =     -531.06556845


--------------------------------------------------------------------------------------------------------


  average scaling for gradient   1.0463


 average (electrostatic) potential at core
  the test charge radii are     0.5770  0.5955
  (the norm of the test charge is              1.0000)
       1 -87.7250       2 -87.7234       3 -87.7246       4 -87.7238       5 -87.7210
       6 -87.7196       7 -87.7231       8 -87.7198       9 -87.7210      10 -87.7216
      11 -87.7185      12 -87.7195      13 -87.7210      14 -87.7175      15 -87.7182
      16 -87.7208      17 -87.7215      18 -87.7238      19 -87.7214      20 -87.7205
      21 -87.7206      22 -87.7169      23 -87.7220      24 -87.7207      25 -87.7206
      26 -87.7197      27 -87.7175      28 -87.7217      29 -87.7212      30 -87.7171
      31 -87.7192      32 -87.7203      33 -87.7211      34 -87.7214      35 -87.7173
      36 -87.7207      37 -87.7179      38 -87.7220      39 -87.7217      40 -87.7239
      41 -87.7248      42 -87.7252      43 -87.7230      44 -87.7236      45 -87.7204
      46 -87.7196      47 -87.7205      48 -87.7198      49 -87.7235      50 -87.7237
      51 -91.8087      52-123.9346      53-123.9373
 
 
 
 E-fermi :  -4.0442     XC(G=0):  -2.3621     alpha+bet : -2.1113

 Fermi energy:        -4.0441947200

 k-point     1 :       0.0000    0.0000    0.0000
  band No.  band energies     occupation 
      1     -28.8694      2.00000
      2     -27.8429      2.00000
      3     -23.2295      2.00000
      4     -22.2441      2.00000
      5     -22.2432      2.00000
      6     -22.2427      2.00000
      7     -22.2425      2.00000
      8     -22.2422      2.00000
      9     -22.2414      2.00000
     10     -20.3115      2.00000
     11     -20.3114      2.00000
     12     -20.3111      2.00000
     13     -20.3104      2.00000
     14     -20.3099      2.00000
     15     -20.3097      2.00000
     16     -19.3761      2.00000
     17     -19.3759      2.00000
     18     -19.3753      2.00000
     19     -19.3752      2.00000
     20     -19.3743      2.00000
     21     -19.3740      2.00000
     22     -17.1554      2.00000
     23     -17.1549      2.00000
     24     -17.1545      2.00000
     25     -17.1541      2.00000
     26     -17.1532      2.00000
     27     -17.1531      2.00000
     28     -15.9960      2.00000
     29     -15.9959      2.00000
     30     -15.9948      2.00000
     31     -15.9946      2.00000
     32     -15.9943      2.00000
     33     -15.9941      2.00000
     34     -14.6033      2.00000
     35     -14.6032      2.00000
     36     -14.6024      2.00000
     37     -14.6022      2.00000
     38     -14.6020      2.00000
     39     -14.6017      2.00000
     40     -12.8225      2.00000
     41     -12.1449      2.00000
     42     -12.1447      2.00000
     43     -12.1442      2.00000
     44     -12.1441      2.00000
     45     -12.1429      2.00000
     46     -12.1426      2.00000
     47     -11.9262      2.00000
     48     -11.9261      2.00000
     49     -11.9251      2.00000
     50     -11.9248      2.00000
     51     -11.9244      2.00000
     52     -11.9243      2.00000
     53     -11.5451      2.00000
     54     -11.2893      2.00000
     55     -11.2875      2.00000
     56     -10.5903      2.00000
     57     -10.4804      2.00000
     58     -10.4802      2.00000
     59     -10.4785      2.00000
     60     -10.4781      2.00000
     61     -10.4780      2.00000
     62     -10.4779      2.00000
     63      -9.4174      2.00000
     64      -9.4165      2.00000
     65      -9.4162      2.00000
     66      -9.4160      2.00000
     67      -9.4159      2.00000
     68      -9.4154      2.00000
     69      -9.1801      2.00000
     70      -9.1797      2.00000
     71      -9.1795      2.00000
     72      -9.1788      2.00000
     73      -9.1784      2.00000
     74      -9.1781      2.00000
     75      -9.1778      2.00000
     76      -9.1767      2.00000
     77      -9.1764      2.00000
     78      -9.1761      2.00000
     79      -9.1759      2.00000
     80      -9.1753      2.00000
     81      -7.6945      2.00000
     82      -7.6912      2.00000
     83      -7.4736      2.00000
     84      -7.4721      2.00000
     85      -7.4718      2.00000
     86      -7.4713      2.00000
     87      -7.4692      2.00000
     88      -7.4685      2.00000
     89      -7.1755      2.00000
     90      -7.1753      2.00000
     91      -7.1751      2.00000
     92      -7.1747      2.00000
     93      -7.1742      2.00000
     94      -7.1740      2.00000
     95      -6.2309      2.00000
     96      -6.2308      2.00000
     97      -6.2305      2.00000
     98      -6.2302      2.00000
     99      -6.2296      2.00000
    100      -6.2293      2.00000
    101      -5.9560      2.00000
    102      -5.9537      2.00000
    103      -4.1337      2.00000
    104      -4.1333      2.00000
    105      -4.1325      2.00000
    106      -4.1325      2.00000
    107      -4.1321      2.00000
    108      -4.1320      2.00000
    109      -1.1574      0.00000
    110      -1.1572      0.00000
    111      -1.1571      0.00000
    112      -1.1569      0.00000
    113      -1.1561      0.00000
    114      -1.1558      0.00000
    115       0.8223      0.00000
    116       0.8226      0.00000
    117       0.8229      0.00000
    118       0.8233      0.00000
    119       0.8235      0.00000
    120       0.8250      0.00000
    121       1.0138      0.00000
    122       1.3031      0.00000
    123       1.5862      0.00000
    124       1.5880      0.00000
    125       1.7936      0.00000
    126       2.2987      0.00000
    127       2.3235      0.00000
    128       2.3291      0.00000
    129       2.3314      0.00000
    130       2.3343      0.00000
    131       2.3349      0.00000
    132       2.4677      0.00000
    133       2.7000      0.00000
    134       2.7002      0.00000
    135       2.7005      0.00000
    136       2.7009      0.00000
    137       2.7011      0.00000
    138       2.7016      0.00000
    139       2.8600      0.00000
    140       3.0085      0.00000
    141       3.0811      0.00000
    142       3.0835      0.00000
    143       3.0996      0.00000
    144       3.1155      0.00000
    145       3.1204      0.00000
    146       3.1225      0.00000
    147       3.1919      0.00000
    148       3.2196      0.00000
    149       3.2513      0.00000
    150       3.3016      0.00000
    151       3.3184      0.00000
    152       4.5678      0.00000
    153       4.6156      0.00000
    154       4.7629      0.00000
    155       4.8793      0.00000
    156       4.9116      0.00000
    157       5.1130      0.00000
    158       5.2562      0.00000
    159       5.2884      0.00000
    160       5.2998      0.00000
    161       5.3050      0.00000
    162       5.3051      0.00000
    163       5.3075      0.00000
    164       5.3081      0.00000
    165       5.3806      0.00000
    166       5.4388      0.00000
    167       5.5236      0.00000
    168       5.6505      0.00000


--------------------------------------------------------------------------------------------------------


 soft charge-density along one line, spin component           1
         0         1         2         3         4         5         6         7         8         9
 total charge-density along one line
 
 pseudopotential strength for first ion, spin component:           1
 12.630  21.251  -0.000   0.000   0.000  -0.000   0.000   0.000
 21.251  35.755  -0.000   0.000   0.000  -0.000   0.000   0.000
 -0.000  -0.000  -3.234   0.000   0.000  -5.794   0.000   0.000
  0.000   0.000   0.000  -3.238   0.000   0.000  -5.800   0.000
  0.000   0.000   0.000   0.000  -3.234   0.000   0.000  -5.794
 -0.000  -0.000  -5.794   0.000   0.000 -10.357   0.000   0.000
  0.000   0.000   0.000  -5.800   0.000   0.000 -10.368   0.000
  0.000   0.000   0.000   0.000  -5.794   0.000   0.000 -10.358
 total augmentation occupancy for first ion, spin component:           1
  9.643  -3.599   0.000  -0.002  -0.001  -0.000   0.001   0.000
 -3.599   1.374  -0.000   0.001   0.001   0.000  -0.000  -0.000
  0.000  -0.000   8.197  -0.009   0.001  -2.896   0.004  -0.000
 -0.002   0.001  -0.009   3.784  -0.000   0.004  -1.107   0.000
 -0.001   0.001   0.001  -0.000   8.196  -0.000   0.000  -2.895
 -0.000   0.000  -2.896   0.004  -0.000   1.036  -0.001   0.000
  0.001  -0.000   0.004  -1.107   0.000  -0.001   0.329  -0.000
  0.000  -0.000  -0.000   0.000  -2.895   0.000  -0.000   1.036


------------------------ aborting loop because EDIFF is reached ----------------------------------------


    FORLOC:  cpu time    0.1040: real time    0.1048
    FORNL :  cpu time    2.9018: real time    2.9252
    FORCOR:  cpu time    1.4946: real time    1.5066
    OFIELD:  cpu time    0.0024: real time    0.0024

 VOLUME and BASIS-vectors are now :
 -----------------------------------------------------------------------------
  energy-cutoff  :     1000.00
  volume of cell :     2631.08
      direct lattice vectors                 reciprocal lattice vectors
    12.325000000  0.000000000  0.000000000     0.081135903  0.046843835  0.000000000
    -6.162500000 10.673763102  0.000000000     0.000000000  0.093687670  0.000000000
     0.000000000  0.000000000 20.000000000     0.000000000  0.000000000  0.050000000

  length of vectors
    12.325000000 12.325000000 20.000000000     0.093687670  0.093687670  0.050000000


 FORCES acting on ions:
    Electron-Ion                     Ewald-Force                    Non-Local-Force
 -----------------------------------------------------------------------------------------------
   0.491E+00 0.428E+00 -.553E+00   -.486E+00 -.434E+00 0.547E+00   -.462E-02 0.564E-02 0.509E-02
   0.661E+00 0.374E+00 0.838E-02   -.660E+00 -.382E+00 -.526E-02   -.480E-02 0.118E-01 -.644E-02
   0.259E+00 0.703E+00 -.440E+00   -.267E+00 -.707E+00 0.438E+00   0.946E-02 0.168E-01 -.465E-02
   0.329E+00 0.462E+00 0.101E+01   -.330E+00 -.471E+00 -.100E+01   0.180E-01 0.142E-01 -.195E-01
   0.563E+00 0.143E+00 -.766E-01   -.552E+00 -.153E+00 0.703E-01   -.125E-01 0.915E-02 0.640E-02
   0.567E+00 -.144E+00 0.886E-01   -.568E+00 0.136E+00 -.898E-01   -.110E-01 0.146E-01 -.875E-04
   0.615E+00 0.290E+00 0.137E+01   -.616E+00 -.301E+00 -.136E+01   0.115E-01 -.323E-02 -.648E-02
   0.652E+00 -.198E+00 0.253E+01   -.657E+00 0.191E+00 -.252E+01   -.741E-02 0.868E-02 -.412E-02
   -.309E+00 0.730E+00 0.554E-01   0.300E+00 -.736E+00 -.544E-01   0.179E-01 -.917E-02 -.429E-02
   -.354E+00 0.314E+00 0.148E+01   0.347E+00 -.320E+00 -.147E+01   -.127E-01 0.225E-01 0.385E-02
   0.141E+00 -.150E+00 -.368E+00   -.137E+00 0.152E+00 0.364E+00   0.260E-02 -.437E-02 0.382E-02
   0.144E+00 -.118E+00 -.399E+00   -.151E+00 0.125E+00 0.390E+00   0.143E-02 -.715E-02 0.993E-02
   0.140E+00 -.494E+00 0.308E+01   -.143E+00 0.490E+00 -.306E+01   0.289E-01 0.186E-02 -.126E-02
   0.994E-01 -.798E+00 0.124E+01   -.101E+00 0.799E+00 -.123E+01   0.115E-02 0.753E-02 -.136E-01
   -.543E+00 0.319E+00 -.398E+00   0.545E+00 -.324E+00 0.385E+00   0.683E-02 -.146E-02 0.125E-01
   -.661E+00 0.165E+00 -.497E+00   0.661E+00 -.165E+00 0.498E+00   -.175E-02 0.643E-02 -.526E-02
   -.978E-01 -.268E-01 -.774E+00   0.964E-01 0.381E-01 0.769E+00   0.707E-02 -.181E-01 0.379E-02
   0.408E-01 0.335E+00 -.830E+00   -.475E-01 -.327E+00 0.820E+00   0.691E-02 -.126E-01 0.103E-01
   -.138E+00 -.740E+00 0.273E+00   0.142E+00 0.748E+00 -.274E+00   -.169E-02 -.958E-02 0.231E-03
   -.782E-01 -.463E+00 -.299E+00   0.866E-01 0.470E+00 0.297E+00   -.162E-01 -.947E-02 0.187E-02
   0.722E+00 -.302E+00 0.901E+00   -.719E+00 0.296E+00 -.889E+00   -.453E-02 0.779E-02 -.165E-01
   0.527E+00 -.415E+00 0.454E+00   -.532E+00 0.416E+00 -.460E+00   -.438E-02 0.662E-02 0.545E-02
   -.110E+00 0.170E+00 0.251E+01   0.978E-01 -.176E+00 -.249E+01   0.743E-04 0.219E-01 0.575E-03
   -.173E+00 -.308E+00 0.256E+01   0.173E+00 0.300E+00 -.254E+01   0.168E-01 -.624E-02 -.139E-01
   0.275E+00 -.887E-01 -.274E+00   -.277E+00 0.931E-01 0.274E+00   0.110E-01 -.105E-01 -.127E-02
   0.820E-01 0.251E+00 -.498E+00   -.938E-01 -.244E+00 0.488E+00   0.112E-01 -.529E-02 0.105E-01
   -.775E+00 0.360E-01 0.301E+00   0.774E+00 -.413E-01 -.306E+00   0.195E-01 0.116E-01 0.244E-02
   -.684E+00 -.308E+00 -.168E+00   0.686E+00 0.308E+00 0.166E+00   -.777E-02 0.781E-02 -.184E-02
   0.271E+00 -.588E+00 0.480E+00   -.270E+00 0.588E+00 -.476E+00   0.387E-02 0.171E-02 -.661E-02
   0.269E-01 -.248E+00 -.166E+00   -.284E-01 0.253E+00 0.162E+00   -.580E-02 -.112E-02 0.489E-02
   -.484E+00 -.477E+00 0.402E+00   0.481E+00 0.480E+00 -.397E+00   -.118E-01 -.973E-02 -.156E-01
   -.359E+00 -.715E+00 -.140E+00   0.367E+00 0.722E+00 0.134E+00   -.693E-02 -.116E-01 0.131E-02
   0.286E-01 0.170E+00 -.526E+00   -.152E-01 -.175E+00 0.516E+00   -.139E-01 0.142E-03 0.107E-01
   0.902E-01 0.133E+00 -.526E+00   -.846E-01 -.137E+00 0.525E+00   -.156E-01 0.134E-01 0.108E-02
   -.351E+00 0.644E-01 -.548E+00   0.360E+00 -.688E-01 0.536E+00   -.412E-02 0.236E-02 0.133E-01
   -.312E+00 -.154E+00 -.570E+00   0.310E+00 0.154E+00 0.565E+00   -.407E-02 0.138E-02 0.459E-02
   -.564E+00 -.319E+00 -.675E+00   0.567E+00 0.324E+00 0.667E+00   -.241E-03 -.966E-02 0.815E-02
   -.381E+00 -.303E+00 -.719E+00   0.382E+00 0.314E+00 0.709E+00   -.285E-02 -.148E-01 0.100E-01
   -.346E+00 -.429E+00 -.679E+00   0.349E+00 0.443E+00 0.674E+00   -.833E-02 -.177E-01 0.530E-02
   -.410E-01 -.123E+00 -.719E+00   0.480E-01 0.132E+00 0.712E+00   -.628E-02 -.132E-01 0.729E-02
   0.140E+00 0.341E+00 -.859E+00   -.142E+00 -.334E+00 0.854E+00   -.307E-02 -.905E-02 0.605E-02
   0.414E+00 0.594E+00 -.759E+00   -.413E+00 -.595E+00 0.751E+00   -.580E-03 -.655E-03 0.520E-02
   0.466E-01 0.554E+00 -.834E+00   -.542E-01 -.550E+00 0.830E+00   0.164E-01 -.784E-02 0.333E-02
   0.713E-02 0.767E+00 -.529E+00   -.182E-01 -.768E+00 0.520E+00   0.929E-02 0.158E-02 0.485E-02
   -.120E+00 0.206E+00 -.435E+00   0.115E+00 -.208E+00 0.432E+00   0.142E-01 -.455E-02 0.377E-02
   -.373E+00 0.493E+00 -.419E+00   0.365E+00 -.491E+00 0.417E+00   0.595E-02 -.930E-03 0.108E-02
   -.124E+00 -.241E+00 -.238E+00   0.132E+00 0.241E+00 0.231E+00   -.526E-02 -.293E-02 0.848E-02
   -.223E+00 0.808E-01 -.573E+00   0.231E+00 -.784E-01 0.572E+00   -.170E-01 0.239E-02 -.522E-03
   0.251E-01 -.140E+00 -.575E+00   -.153E-01 0.145E+00 0.569E+00   -.111E-01 -.111E-01 0.677E-02
   0.246E+00 0.172E+00 -.629E+00   -.237E+00 -.170E+00 0.625E+00   -.173E-01 0.258E-02 0.398E-02
   -.418E-02 0.267E-01 0.466E+00   0.283E-02 -.290E-01 -.429E+00   -.156E-01 0.151E-01 0.132E-02
   -.228E+03 0.155E+03 -.109E+02   0.279E+03 -.190E+03 0.143E+02   -.527E+02 0.359E+02 -.355E+01
   0.228E+03 -.155E+03 0.870E+01   -.279E+03 0.190E+03 -.118E+02   0.527E+02 -.359E+02 0.318E+01
 -----------------------------------------------------------------------------------------------
   -.170E-01 0.192E-01 0.324E+00   0.568E-13 0.000E+00 -.178E-14   -.879E-02 -.791E-02 -.307E+00
 
 
 POSITION                                       TOTAL-FORCE (eV/Angst)
 -----------------------------------------------------------------------------------
     11.98348      0.00342      0.01417        -0.006352      0.006170     -0.003319
     -0.34154      1.42665      0.01100        -0.013139      0.018281     -0.004460
      2.12355      0.00315      0.01249         0.009916      0.018185     -0.009218
      2.12326      1.42653      0.00641         0.027630      0.018794     -0.008798
     10.75099      2.13819      0.01213        -0.007200      0.016713     -0.000121
     -1.57382      3.56123      0.01110        -0.026143      0.013949     -0.000705
      0.89078      2.13854      0.00548         0.010677      0.008723      0.003394
      0.89099      3.56147      0.00181        -0.010532      0.009281      0.013785
      4.58864      0.00346      0.01135         0.026273     -0.018034     -0.003657
      4.58894      1.42623      0.00646         0.002287      0.028365      0.015782
      9.51854      4.27281      0.01369         0.016925      0.001343      0.001255
     -2.80632      5.69591      0.01434        -0.005831     -0.017629      0.001371
      2.12300      4.27302      0.00000         0.023667      0.015450      0.022872
      2.12335      5.69594      0.00581         0.004364      0.005436      0.000172
      7.05344      0.00333      0.01399         0.008911     -0.015496      0.000710
      7.05353      1.42635      0.01368        -0.002833      0.014205     -0.004489
      8.28610      6.40752      0.01601         0.019045     -0.021706     -0.001029
     -4.03885      7.83070      0.01636         0.007572     -0.019459     -0.001439
      3.35586      6.40753      0.01007        -0.014242     -0.010891     -0.000879
      3.35599      7.83072      0.01320        -0.017990     -0.008101     -0.000307
     -0.34146      4.27290      0.00723         0.000942      0.019538     -0.003866
     -0.34138      5.69591      0.00946        -0.012412      0.004116      0.002211
      3.35624      2.13791      0.00222        -0.006191      0.031364      0.018009
      3.35573      3.56155      0.00139         0.031899     -0.009455      0.010054
     -1.57395      6.40758      0.01311         0.025668     -0.014731     -0.000275
     -1.57385      7.83068      0.01438         0.010727     -0.002812      0.000328
      5.82093      2.13784      0.01033         0.020234      0.007386      0.000089
      5.82114      3.56097      0.01156         0.001093      0.002388     -0.004914
      0.89092      6.40755      0.00907         0.004678      0.000490     -0.002609
      0.89106      7.83068      0.01235        -0.007251      0.009098      0.003456
      4.58871      4.27293      0.00850        -0.023996     -0.003114     -0.010029
      4.58852      5.69606      0.01149         0.001668     -0.024039     -0.003760
      9.51845      0.00337      0.01490        -0.017870     -0.006094     -0.000243
      9.51855      1.42644      0.01438        -0.030978      0.020885      0.000166
      8.28593      2.13803      0.01453         0.002510      0.000503      0.002951
      8.28613      3.56115      0.01464        -0.012490     -0.003513     -0.000623
      7.05356      4.27269      0.01457         0.003925     -0.008553      0.001412
      7.05362      5.69588      0.01553        -0.001719     -0.029539     -0.000058
      5.82112      6.40755      0.01489        -0.016028     -0.018456     -0.000617
      5.82102      7.83073      0.01579        -0.004599     -0.020538     -0.001563
      7.05363      8.54227      0.01631        -0.003098     -0.010796     -0.000896
     -5.27149      9.96549      0.01495         0.001904     -0.001080     -0.004970
     -2.80638      8.54234      0.01558         0.029700     -0.015352     -0.001756
     -2.80627      9.96553      0.01362         0.017186      0.004744     -0.005306
     -0.34149      8.54239      0.01378         0.023739     -0.017077      0.000298
     -0.34138      9.96550      0.01354         0.011435      0.011045     -0.000794
      2.12343      8.54232      0.01336        -0.012834     -0.013732      0.000995
      2.12354      9.96544      0.01469        -0.024252      0.014295     -0.001301
      4.58846      8.54235      0.01505        -0.020267     -0.016631      0.000529
      4.58853      9.96550      0.01517        -0.024803      0.007681     -0.000965
      3.04930      2.68154     10.00000        -0.032260      0.021438      0.042181
      4.02070      2.02068     10.06442        -1.666440      1.108571     -0.136724
      2.07767      3.34267      9.94055         1.677174     -1.111608      0.077669
 -----------------------------------------------------------------------------------
    total drift:                               -0.025756      0.011301      0.017160


--------------------------------------------------------------------------------------------------------



  FREE ENERGIE OF THE ION-ELECTRON SYSTEM (eV)
  ---------------------------------------------------
  free  energy   TOTEN  =      -531.06556845 eV

  energy  without entropy=     -531.06556845  energy(sigma->0) =     -531.06556845
 


--------------------------------------------------------------------------------------------------------


    POTLOK:  cpu time    1.6932: real time    1.7044


--------------------------------------------------------------------------------------------------------


 writing wavefunctions
     LOOP+:  cpu time  666.8566: real time  673.0651
    4ORBIT:  cpu time    0.0000: real time    0.0000

 total amount of memory used by VASP MPI-rank0   556209. kBytes
=======================================================================

   base      :      30000. kBytes
   nonl-proj :     184518. kBytes
   fftplans  :      31725. kBytes
   grid      :     282516. kBytes
   one-center:        162. kBytes
   wavefun   :      27288. kBytes
 
  
  
 General timing and accounting informations for this job:
 ========================================================
  
                  Total CPU time used (sec):      700.871
                            User time (sec):      680.785
                          System time (sec):       20.086
                         Elapsed time (sec):      709.171
  
                   Maximum memory used (kb):     1036312.
                   Average memory used (kb):          N/A
  
                          Minor page faults:       140114
                          Major page faults:           92
                 Voluntary context switches:         3696
