 vasp.6.2.1 16May21 (build Nov 06 2021 14:46:37) complex                        
  
 executed on             LinuxIFC date 2025.03.03  18:00:31
 running on  112 total cores
 distrk:  each k-point on   56 cores,    2 groups
 distr:  one band on NCORE=   1 cores,   56 groups


--------------------------------------------------------------------------------------------------------


 INCAR:
   ALGO = Conjugate
   KPAR = 2
   NCORE = 32
   ISMEAR = 0
   SIGMA = 0.01
   PREC = Accurate
   EDIFF = 1E-7
   ENCUT = 1000
   ISIF = 0
   METAGGA = SCAN
   LASPH = .TRUE.
   SYMPREC = 1E-7

 POTCAR:    PAW_PBE C_h 06Feb2004                 
 POTCAR:    PAW_PBE O_h 06Feb2004                 
 -----------------------------------------------------------------------------
|                                                                             |
|           W    W    AA    RRRRR   N    N  II  N    N   GGGG   !!!           |
|           W    W   A  A   R    R  NN   N  II  NN   N  G    G  !!!           |
|           W    W  A    A  R    R  N N  N  II  N N  N  G       !!!           |
|           W WW W  AAAAAA  RRRRR   N  N N  II  N  N N  G  GGG   !            |
|           WW  WW  A    A  R   R   N   NN  II  N   NN  G    G                |
|           W    W  A    A  R    R  N    N  II  N    N   GGGG   !!!           |
|                                                                             |
|     The value NCORE = 32 specified in the INCAR file was overwritten,       |
|     because it was not compatible with the 56 processes available:          |
|     NCORE = 1                                                               |
|     was used instead, please check that this makes sense for your           |
|     machine.                                                                |
|                                                                             |
 -----------------------------------------------------------------------------

 -----------------------------------------------------------------------------
|                                                                             |
|           W    W    AA    RRRRR   N    N  II  N    N   GGGG   !!!           |
|           W    W   A  A   R    R  NN   N  II  NN   N  G    G  !!!           |
|           W    W  A    A  R    R  N N  N  II  N N  N  G       !!!           |
|           W WW W  AAAAAA  RRRRR   N  N N  II  N  N N  G  GGG   !            |
|           WW  WW  A    A  R   R   N   NN  II  N   NN  G    G                |
|           W    W  A    A  R    R  N    N  II  N    N   GGGG   !!!           |
|                                                                             |
|     For optimal performance we recommend to set                             |
|       NCORE = 2 up to number-of-cores-per-socket                            |
|     NCORE specifies how many cores store one orbital (NPAR=cpu/NCORE).      |
|     This setting can greatly improve the performance of VASP for DFT.       |
|     The default, NCORE=1 might be grossly inefficient on modern             |
|     multi-core architectures or massively parallel machines. Do your        |
|     own testing! More info at https://www.vasp.at/wiki/index.php/NCORE      |
|     Unfortunately you need to use the default for GW and RPA                |
|     calculations (for HF NCORE is supported but not extensively tested      |
|     yet).                                                                   |
|                                                                             |
 -----------------------------------------------------------------------------

 POTCAR:    PAW_PBE C_h 06Feb2004                 
   VRHFIN =C: s2p2                                                                                  
   LEXCH  = PE                                                                                      
   EATOM  =   147.1560 eV,   10.8157 Ry                                                             
                                                                                                    
   TITEL  = PAW_PBE C_h 06Feb2004                                                                   
   LULTRA =        F    use ultrasoft PP ?                                                          
   IUNSCR =        1    unscreen: 0-lin 1-nonlin 2-no                                               
   RPACOR =    0.800    partial core radius                                                         
   POMASS =   12.011; ZVAL   =    4.000    mass and valenz                                          
   RCORE  =    1.100    outmost cutoff radius                                                       
   RWIGS  =    1.630; RWIGS  =    0.863    wigner-seitz radius (au A)                               
   ENMAX  =  700.000; ENMIN  =  500.000 eV                                                          
   ICORE  =        2    local potential                                                             
   LCOR   =        T    correct aug charges                                                         
   LPAW   =        T    paw PP                                                                      
   EAUG   =  946.768                                                                                
   DEXC   =    0.000                                                                                
   RMAX   =    1.128    core radius for proj-oper                                                   
   RAUG   =    1.300    factor for augmentation sphere                                              
   RDEP   =    1.162    radius for radial grids                                                     
   RDEPT  =    1.088    core radius for aug-charge                                                  
                                                                                                    
   Atomic configuration                                                                             
    4 entries                                                                                       
     n  l   j            E        occ.                                                              
     1  0  0.50      -273.3789   2.0000                                                             
     2  0  0.50       -13.7508   2.0000                                                             
     2  1  0.50        -5.2854   2.0000                                                             
     3  2  1.50        -5.4423   0.0000                                                             
   Description                                                                                      
     l       E           TYP  RCUT    TYP  RCUT                                                     
     0    -13.7508458     23  1.100                                                                 
     0     -8.2022199     23  1.100                                                                 
     1     -5.2854383     23  1.100                                                                 
     1      1.1560700     23  1.100                                                                 
     2     -5.4423304      7  1.100                                                                 
  local pseudopotential read in
  partial core-charges read in
  partial kinetic energy density read in
  atomic valenz-charges read in
  non local Contribution for L=           0  read in
    real space projection operators read in
  non local Contribution for L=           0  read in
    real space projection operators read in
  non local Contribution for L=           1  read in
    real space projection operators read in
  non local Contribution for L=           1  read in
    real space projection operators read in
    PAW grid and wavefunctions read in
 
   number of l-projection  operators is LMAX  =           4
   number of lm-projection operators is LMMAX =           8
 
 POTCAR:    PAW_PBE O_h 06Feb2004                 
   VRHFIN =O: s2p4                                                                                  
   LEXCH  = PE                                                                                      
   EATOM  =   432.3788 eV,   31.7789 Ry                                                             
                                                                                                    
   TITEL  = PAW_PBE O_h 06Feb2004                                                                   
   LULTRA =        F    use ultrasoft PP ?                                                          
   IUNSCR =        1    unscreen: 0-lin 1-nonlin 2-no                                               
   RPACOR =    0.800    partial core radius                                                         
   POMASS =   16.000; ZVAL   =    6.000    mass and valenz                                          
   RCORE  =    1.100    outmost cutoff radius                                                       
   RWIGS  =    1.400; RWIGS  =    0.741    wigner-seitz radius (au A)                               
   ENMAX  =  700.000; ENMIN  =  500.000 eV                                                          
   ICORE  =        2    local potential                                                             
   LCOR   =        T    correct aug charges                                                         
   LPAW   =        T    paw PP                                                                      
   EAUG   =  888.804                                                                                
   DEXC   =    0.000                                                                                
   RMAX   =    1.128    core radius for proj-oper                                                   
   RAUG   =    1.300    factor for augmentation sphere                                              
   RDEP   =    1.125    radius for radial grids                                                     
   RDEPT  =    1.088    core radius for aug-charge                                                  
                                                                                                    
   Atomic configuration                                                                             
    4 entries                                                                                       
     n  l   j            E        occ.                                                              
     1  0  0.50      -514.6923   2.0000                                                             
     2  0  0.50       -23.9615   2.0000                                                             
     2  1  0.50        -9.0305   4.0000                                                             
     3  2  1.50        -9.5241   0.0000                                                             
   Description                                                                                      
     l       E           TYP  RCUT    TYP  RCUT                                                     
     0    -23.9615319     23  1.100                                                                 
     0    -25.3221145     23  1.100                                                                 
     1     -9.0304911     23  1.100                                                                 
     1     -5.4802209     23  1.100                                                                 
     2     -9.5240782      7  1.100                                                                 
  local pseudopotential read in
  partial core-charges read in
  partial kinetic energy density read in
  atomic valenz-charges read in
  non local Contribution for L=           0  read in
    real space projection operators read in
  non local Contribution for L=           0  read in
    real space projection operators read in
  non local Contribution for L=           1  read in
    real space projection operators read in
  non local Contribution for L=           1  read in
    real space projection operators read in
    PAW grid and wavefunctions read in
 
   number of l-projection  operators is LMAX  =           4
   number of lm-projection operators is LMMAX =           8
 
 -----------------------------------------------------------------------------
|                                                                             |
|               ----> ADVICE to this user running VASP <----                  |
|                                                                             |
|     You have a (more or less) 'large supercell' and for larger cells it     |
|     might be more efficient to use real-space projection operators.         |
|     Therefore, try LREAL= Auto in the INCAR file.                           |
|     Mind: For very accurate calculation, you might also keep the            |
|     reciprocal projection scheme (i.e. LREAL=.FALSE.).                      |
|                                                                             |
 -----------------------------------------------------------------------------

  PAW_PBE C_h 06Feb2004                 :
 energy of atom  1       EATOM= -147.1560
 kinetic energy error for atom=    0.0031 (will be added to EATOM!!)
  PAW_PBE O_h 06Feb2004                 :
 energy of atom  2       EATOM= -432.3788
 kinetic energy error for atom=    0.0171 (will be added to EATOM!!)
 
 
 POSCAR:  C  O
  positions in cartesian coordinates
  No initial velocities read in

 METAGGA = SCAN     LMAXTAU =  6    LMIXTAU =  F

 exchange correlation table for  LEXCH =        8
   RHO(1)=    0.500       N(1)  =     2000
   RHO(2)=  100.500       N(2)  =     4000
 


--------------------------------------------------------------------------------------------------------


 ion  position               nearest neighbor table
   1  0.972  0.000  0.001-  50 1.42   2 1.42  42 1.42
   2  0.039  0.134  0.001-   5 1.42   7 1.42   1 1.42
   3  0.172  0.000  0.001-  42 1.42  44 1.42   4 1.42
   4  0.239  0.134  0.000-   7 1.42   3 1.42  23 1.42
   5  0.972  0.200  0.001-   6 1.42   2 1.42  34 1.42
   6  0.039  0.334  0.001-   5 1.42  21 1.42  11 1.42
   7  0.172  0.200  0.000-   8 1.42   2 1.42   4 1.42
   8  0.239  0.334  0.000-  13 1.42   7 1.42  21 1.42
   9  0.372  0.000  0.001-  10 1.42  44 1.42  46 1.42
  10  0.439  0.134  0.000-  27 1.42   9 1.42  23 1.42
  11  0.972  0.400  0.001-  12 1.42  36 1.42   6 1.42
  12  0.039  0.534  0.001-  25 1.42  11 1.42  17 1.42
  13  0.372  0.400  0.000-   8 1.42  14 1.42  24 1.42
  14  0.439  0.534  0.000-  13 1.42  29 1.42  19 1.42
  15  0.572  0.000  0.001-  46 1.42  16 1.42  48 1.42
  16  0.639  0.134  0.001-  15 1.42  35 1.42  27 1.42
  17  0.972  0.600  0.001-  38 1.42  18 1.42  12 1.42
  18  0.039  0.734  0.001-  43 1.42  41 1.42  17 1.42
  19  0.572  0.600  0.001-  14 1.42  20 1.42  32 1.42
  20  0.639  0.734  0.001-  49 1.42  19 1.42  47 1.42
  21  0.172  0.400  0.000-  22 1.42   8 1.42   6 1.42
  22  0.239  0.534  0.000-  21 1.42  29 1.42  25 1.42
  23  0.372  0.200  0.000-  10 1.42   4 1.42  24 1.42
  24  0.439  0.334  0.000-  13 1.42  31 1.42  23 1.42
  25  0.172  0.600  0.001-  26 1.42  12 1.42  22 1.42
  26  0.239  0.734  0.001-  25 1.42  45 1.42  43 1.42
  27  0.572  0.200  0.001-  10 1.42  28 1.42  16 1.42
  28  0.639  0.334  0.001-  27 1.42  37 1.42  31 1.42
  29  0.372  0.600  0.000-  22 1.42  14 1.42  30 1.42
  30  0.439  0.734  0.001-  47 1.42  29 1.42  45 1.42
  31  0.572  0.400  0.000-  32 1.42  28 1.42  24 1.42
  32  0.639  0.534  0.001-  31 1.42  39 1.42  19 1.42
  33  0.772  0.000  0.001-  34 1.42  48 1.42  50 1.42
  34  0.839  0.134  0.001-  33 1.42   5 1.42  35 1.42
  35  0.772  0.200  0.001-  36 1.42  16 1.42  34 1.42
  36  0.839  0.334  0.001-  35 1.42  11 1.42  37 1.42
  37  0.772  0.400  0.001-  28 1.42  38 1.42  36 1.42
  38  0.839  0.534  0.001-  17 1.42  37 1.42  39 1.42
  39  0.772  0.600  0.001-  40 1.42  38 1.42  32 1.42
  40  0.839  0.734  0.001-  39 1.42  49 1.42  41 1.42
  41  0.972  0.800  0.001-  18 1.42  42 1.42  40 1.42
  42  0.039  0.934  0.001-   3 1.42  41 1.42   1 1.42
  43  0.172  0.800  0.001-  18 1.42  44 1.42  26 1.42
  44  0.239  0.934  0.001-   9 1.42  43 1.42   3 1.42
  45  0.372  0.800  0.001-  26 1.42  46 1.42  30 1.42
  46  0.439  0.934  0.001-  15 1.42  45 1.42   9 1.42
  47  0.572  0.800  0.001-  30 1.42  48 1.42  20 1.42
  48  0.639  0.934  0.001-  47 1.42  33 1.42  15 1.42
  49  0.772  0.800  0.001-  50 1.42  20 1.42  40 1.42
  50  0.839  0.934  0.001-  49 1.42   1 1.42  33 1.42
  51  0.373  0.251  0.149-  52 1.18  53 1.18
  52  0.421  0.189  0.152-  51 1.18
  53  0.325  0.313  0.146-  51 1.18
 
  LATTYP: Found a hexagonal cell.
 ALAT       =    12.3250000000
 C/A-ratio  =     1.6227180527
  
  Lattice vectors:
  
 A1 = (  12.3250000000,   0.0000000000,   0.0000000000)
 A2 = (  -6.1625000000,  10.6737631016,   0.0000000000)
 A3 = (   0.0000000000,   0.0000000000,  20.0000000000)


Analysis of symmetry for initial positions (statically):
=====================================================================
 Subroutine PRICEL returns:
 Original cell was already a primitive cell.
 

 Routine SETGRP: Setting up the symmetry group for a 
 hexagonal supercell.


 Subroutine GETGRP returns: Found  1 space group operations
 (whereof  1 operations were pure point group operations)
 out of a pool of 24 trial point group operations.


The static configuration has the point symmetry C_1 .


Analysis of symmetry for dynamics (positions and initial velocities):
=====================================================================
 Subroutine PRICEL returns:
 Original cell was already a primitive cell.
 

 Routine SETGRP: Setting up the symmetry group for a 
 hexagonal supercell.


 Subroutine GETGRP returns: Found  1 space group operations
 (whereof  1 operations were pure point group operations)
 out of a pool of 24 trial point group operations.


The dynamic configuration has the point symmetry C_1 .


 Subroutine INISYM returns: Found  1 space group operations
 (whereof  1 operations are pure point group operations),
 and found     1 'primitive' translations


----------------------------------------------------------------------------------------

                                     Primitive cell                                     

  volume of cell :    2631.0826

  direct lattice vectors                    reciprocal lattice vectors
    12.325000000  0.000000000  0.000000000     0.081135903  0.046843835  0.000000000
    -6.162500000 10.673763102  0.000000000     0.000000000  0.093687670  0.000000000
     0.000000000  0.000000000 20.000000000     0.000000000  0.000000000  0.050000000

  length of vectors
    12.325000000 12.325000000 20.000000000     0.093687670  0.093687670  0.050000000

  position of ions in fractional coordinates (direct lattice)
     0.972450841  0.000320818  0.000708389
     0.039118382  0.133659505  0.000550216
     0.172443627  0.000295449  0.000624535
     0.239096278  0.133647917  0.000320585
     0.972452058  0.200322012  0.000606523
     0.039128360  0.333643771  0.000555187
     0.172451764  0.200354552  0.000273959
     0.239124359  0.333665720  0.000090325
     0.372465565  0.000324403  0.000567391
     0.439137473  0.133619939  0.000322923
     0.972449824  0.400309362  0.000684513
     0.039124981  0.533636789  0.000716763
     0.372416176  0.400329481  0.000000000
     0.439099602  0.533638981  0.000290518
     0.572443676  0.000312125  0.000699475
     0.639110207  0.133631751  0.000684093
     0.972452703  0.600305653  0.000800361
     0.039124495  0.733640359  0.000818141
     0.572433471  0.600306242  0.000503618
     0.639111888  0.733641879  0.000659881
     0.172454630  0.400318228  0.000361306
     0.239120185  0.533636548  0.000473136
     0.372459750  0.200295993  0.000111246
     0.439107096  0.333673419  0.000069702
     0.172452155  0.600311506  0.000655425
     0.239123371  0.733638574  0.000718912
     0.572431082  0.200289171  0.000516621
     0.639112773  0.333618630  0.000577970
     0.372439808  0.600308022  0.000453556
     0.439116090  0.733637858  0.000617737
     0.572469358  0.400320504  0.000424897
     0.639119408  0.533650873  0.000574513
     0.772445723  0.000315427  0.000745201
     0.839116277  0.133640203  0.000719132
     0.772440513  0.200307432  0.000726291
     0.839120241  0.333635728  0.000731834
     0.772446320  0.400298367  0.000728722
     0.839118980  0.533633964  0.000776376
     0.772456143  0.600308173  0.000744639
     0.839115033  0.733643180  0.000789390
     0.972455313  0.800305582  0.000815291
     0.039114714  0.933643289  0.000747563
     0.172457971  0.800312211  0.000779216
     0.239134551  0.933647193  0.000681063
     0.372451396  0.800316674  0.000689249
     0.439124489  0.933644769  0.000676788
     0.572441101  0.800310054  0.000668168
     0.639115067  0.933638985  0.000734556
     0.772445098  0.800313187  0.000752577
     0.839116614  0.933644338  0.000758538
     0.373021009  0.251226878  0.148650889
     0.420879805  0.189313152  0.151871982
     0.325156981  0.313167186  0.145678146

  ion indices of the primitive-cell ions
   primitive index   ion index
                 1           1
                 2           2
                 3           3
                 4           4
                 5           5
                 6           6
                 7           7
                 8           8
                 9           9
                10          10
                11          11
                12          12
                13          13
                14          14
                15          15
                16          16
                17          17
                18          18
                19          19
                20          20
                21          21
                22          22
                23          23
                24          24
                25          25
                26          26
                27          27
                28          28
                29          29
                30          30
                31          31
                32          32
                33          33
                34          34
                35          35
                36          36
                37          37
                38          38
                39          39
                40          40
                41          41
                42          42
                43          43
                44          44
                45          45
                46          46
                47          47
                48          48
                49          49
                50          50
                51          51
                52          52
                53          53

----------------------------------------------------------------------------------------

 
 
 KPOINTS: auto                                    

Automatic generation of k-mesh.
 Grid dimensions read from file:
 generate k-points for:    1    1    1

 Generating k-lattice:

  Cartesian coordinates                     Fractional coordinates (reciprocal lattice)
     0.081135903  0.046843835  0.000000000     1.000000000 -0.000000000  0.000000000
     0.000000000  0.093687670  0.000000000     0.000000000  1.000000000  0.000000000
     0.000000000  0.000000000  0.050000000     0.000000000  0.000000000  1.000000000

  Length of vectors
     0.093687670  0.093687670  0.050000000

  Shift w.r.t. Gamma in fractional coordinates (k-lattice)
     0.000000000  0.000000000  0.000000000

 
 Subroutine IBZKPT returns following result:
 ===========================================
 
 Found      1 irreducible k-points:
 
 Following reciprocal coordinates:
            Coordinates               Weight
  0.000000  0.000000  0.000000      1.000000
 
 Following cartesian coordinates:
            Coordinates               Weight
  0.000000  0.000000  0.000000      1.000000
 


--------------------------------------------------------------------------------------------------------




 Dimension of arrays:
   k-points           NKPTS =      1   k-points in BZ     NKDIM =      1   number of bands    NBANDS=    168
   number of dos      NEDOS =    301   number of ions     NIONS =     53
   non local maximal  LDIM  =      4   non local SUM 2l+1 LMDIM =      8
   total plane-waves  NPLWV = ******
   max r-space proj   IRMAX =      1   max aug-charges    IRDMAX=   9736
   dimension x,y,z NGX =   128 NGY =  128 NGZ =  210
   dimension x,y,z NGXF=   256 NGYF=  256 NGZF=  420
   support grid    NGXF=   256 NGYF=  256 NGZF=  420
   ions per type =              51   2
   NGX,Y,Z   is equivalent  to a cutoff of  17.27, 17.27, 17.46 a.u.
   NGXF,Y,Z  is equivalent  to a cutoff of  34.53, 34.53, 34.91 a.u.

 SYSTEM =  unknown system                          
 POSCAR =   C  O                                   

 Startparameter for this run:
   NWRITE =      2    write-flag & timer
   PREC   = accura    normal or accurate (medium, high low for compatibility)
   ISTART =      0    job   : 0-new  1-cont  2-samecut
   ICHARG =      2    charge: 1-file 2-atom 10-const
   ISPIN  =      1    spin polarized calculation?
   LNONCOLLINEAR =      F non collinear calculations
   LSORBIT =      F    spin-orbit coupling
   INIWAV =      1    electr: 0-lowe 1-rand  2-diag
   LASPH  =      T    aspherical Exc in radial PAW
 Electronic Relaxation 1
   ENCUT  = 1000.0 eV  73.50 Ry    8.57 a.u.  31.78 31.78 51.57*2*pi/ulx,y,z
   ENINI  = 1000.0     initial cutoff
   ENAUG  =  946.8 eV  augmentation charge cutoff
   NELM   =     60;   NELMIN=  2; NELMDL= -5     # of ELM steps 
   EDIFF  = 0.1E-06   stopping-criterion for ELM
   LREAL  =      F    real-space projection
   NLSPLINE    = F    spline interpolate recip. space projectors
   LCOMPAT=      F    compatible to vasp.4.4
   GGA_COMPAT  = T    GGA compatible to vasp.4.4-vasp.4.6
   LMAXPAW     = -100 max onsite density
   LMAXMIX     =    2 max onsite mixed and CHGCAR
   VOSKOWN=      0    Vosko Wilk Nusair interpolation
   ROPT   =    0.00000   0.00000
 Ionic relaxation
   EDIFFG = 0.1E-05   stopping-criterion for IOM
   NSW    =      0    number of steps for IOM
   NBLOCK =      1;   KBLOCK =      1    inner block; outer block 
   IBRION =     -1    ionic relax: 0-MD 1-quasi-New 2-CG
   NFREE  =      0    steps in history (QN), initial steepest desc. (CG)
   ISIF   =      0    stress and relaxation
   IWAVPR =     10    prediction:  0-non 1-charg 2-wave 3-comb
   ISYM   =      2    0-nonsym 1-usesym 2-fastsym
   LCORR  =      T    Harris-Foulkes like correction to forces

   POTIM  = 0.5000    time-step for ionic-motion
   TEIN   =    0.0    initial temperature
   TEBEG  =    0.0;   TEEND  =   0.0 temperature during run
   SMASS  =  -3.00    Nose mass-parameter (am)
   estimated Nose-frequenzy (Omega)   =  0.10E-29 period in steps = 0.13E+47 mass=  -0.347E-26a.u.
   SCALEE = 1.0000    scale energy and forces
   NPACO  =    256;   APACO  = 16.0  distance and # of slots for P.C.
   PSTRESS=    0.0 pullay stress

  Mass of Ions in am
   POMASS =  12.01 16.00
  Ionic Valenz
   ZVAL   =   4.00  6.00
  Atomic Wigner-Seitz radii
   RWIGS  =  -1.00 -1.00
  virtual crystal weights 
   VCA    =   1.00  1.00
   NELECT =     216.0000    total number of electrons
   NUPDOWN=      -1.0000    fix difference up-down

 DOS related values:
   EMIN   =  10.00;   EMAX   =-10.00  energy-range for DOS
   EFERMI =   0.00
   ISMEAR =     0;   SIGMA  =   0.01  broadening in eV -4-tet -1-fermi 0-gaus

 Electronic relaxation 2 (details)
   IALGO  =     58    algorithm
   LDIAG  =      T    sub-space diagonalisation (order eigenvalues)
   LSUBROT=      F    optimize rotation matrix (better conditioning)
   TURBO    =      0    0=normal 1=particle mesh
   IRESTART =      0    0=no restart 2=restart with 2 vectors
   NREBOOT  =      0    no. of reboots
   NMIN     =      0    reboot dimension
   EREF     =   0.00    reference energy to select bands
   IMIX   =      4    mixing-type and parameters
     AMIX     =   0.40;   BMIX     =  1.00
     AMIX_MAG =   1.60;   BMIX_MAG =  1.00
     AMIN     =   0.10
     WC   =   100.;   INIMIX=   1;  MIXPRE=   1;  MAXMIX= -45

 Intra band minimization:
   WEIMIN = 0.0000     energy-eigenvalue tresh-hold
   EBREAK =  0.15E-09  absolut break condition
   DEPER  =   0.30     relativ break condition  

   TIME   =   0.40     timestep for ELM

  volume/ion in A,a.u.               =      49.64       335.01
  Fermi-wavevector in a.u.,A,eV,Ry     =   0.711510  1.344560  6.887909  0.506247
  Thomas-Fermi vector in A             =   1.798641
 
 Write flags
   LWAVE        =      T    write WAVECAR
   LDOWNSAMPLE  =      F    k-point downsampling of WAVECAR
   LCHARG       =      T    write CHGCAR
   LVTOT        =      F    write LOCPOT, total local potential
   LVHAR        =      F    write LOCPOT, Hartree potential only
   LELF         =      F    write electronic localiz. function (ELF)
   LORBIT       =      0    0 simple, 1 ext, 2 COOP (PROOUT), +10 PAW based schemes


 Dipole corrections
   LMONO  =      F    monopole corrections only (constant potential shift)
   LDIPOL =      F    correct potential (dipole corrections)
   IDIPOL =      0    1-x, 2-y, 3-z, 4-all directions 
   EPSILON=  1.0000000 bulk dielectric constant

 Exchange correlation treatment:
   GGA     =    --    GGA type
   LEXCH   =     8    internal setting for exchange type
   VOSKOWN=      0    Vosko Wilk Nusair interpolation
   LHFCALC =     F    Hartree Fock is set to
   LHFONE  =     F    Hartree Fock one center treatment
   AEXX    =    0.0000 exact exchange contribution

 Linear response parameters
   LEPSILON=     F    determine dielectric tensor
   LRPA    =     F    only Hartree local field effects (RPA)
   LNABLA  =     F    use nabla operator in PAW spheres
   LVEL    =     F    velocity operator in full k-point grid
   LINTERFAST=   F  fast interpolation
   KINTER  =     0    interpolate to denser k-point grid
   CSHIFT  =0.1000    complex shift for real part using Kramers Kronig
   OMEGAMAX=  -1.0    maximum frequency
   DEG_THRESHOLD= 0.2000000E-02 threshold for treating states as degnerate
   RTIME   =   -0.100 relaxation time in fs
  (WPLASMAI=    0.000 imaginary part of plasma frequency in eV, 0.658/RTIME)
   DFIELD  = 0.0000000 0.0000000 0.0000000 field for delta impulse in time
 
 Orbital magnetization related:
   ORBITALMAG=     F  switch on orbital magnetization
   LCHIMAG   =     F  perturbation theory with respect to B field
   DQ        =  0.001000  dq finite difference perturbation B field
   LLRAUG    =     F  two centre corrections for induced B field



--------------------------------------------------------------------------------------------------------


 Static calculation
 charge density and potential will be updated during run
 non-spin polarized calculation
 Conjugate gradient for all bands (Freysoldt, et al. PRB 79, 241103 (2009))
 preconditioned conjugated gradient                                        
 perform sub-space diagonalisation
    before iterative eigenvector-optimisation
 modified Broyden-mixing scheme, WC =      100.0
 initial mixing is a Kerker type mixing with AMIX =  0.4000 and BMIX =      1.0000
 Hartree-type preconditioning will be used
 using additional bands           60
 reciprocal scheme for non local part
 use partial core corrections
 no Harris-corrections to forces 
 use gradient corrections 
 use of overlap-Matrix (Vanderbilt PP)
 Gauss-broadening in eV      SIGMA  =   0.01


--------------------------------------------------------------------------------------------------------


  energy-cutoff  :     1000.00
  volume of cell :     2631.08
      direct lattice vectors                 reciprocal lattice vectors
    12.325000000  0.000000000  0.000000000     0.081135903  0.046843835  0.000000000
    -6.162500000 10.673763102  0.000000000     0.000000000  0.093687670  0.000000000
     0.000000000  0.000000000 20.000000000     0.000000000  0.000000000  0.050000000

  length of vectors
    12.325000000 12.325000000 20.000000000     0.093687670  0.093687670  0.050000000


 
 k-points in units of 2pi/SCALE and weight: auto                                    
   0.00000000  0.00000000  0.00000000       1.000
 
 k-points in reciprocal lattice and weights: auto                                    
   0.00000000  0.00000000  0.00000000       1.000
 
 position of ions in fractional coordinates (direct lattice) 
   0.97245084  0.00032082  0.00070839
   0.03911838  0.13365950  0.00055022
   0.17244363  0.00029545  0.00062454
   0.23909628  0.13364792  0.00032058
   0.97245206  0.20032201  0.00060652
   0.03912836  0.33364377  0.00055519
   0.17245176  0.20035455  0.00027396
   0.23912436  0.33366572  0.00009033
   0.37246557  0.00032440  0.00056739
   0.43913747  0.13361994  0.00032292
   0.97244982  0.40030936  0.00068451
   0.03912498  0.53363679  0.00071676
   0.37241618  0.40032948  0.00000000
   0.43909960  0.53363898  0.00029052
   0.57244368  0.00031213  0.00069947
   0.63911021  0.13363175  0.00068409
   0.97245270  0.60030565  0.00080036
   0.03912449  0.73364036  0.00081814
   0.57243347  0.60030624  0.00050362
   0.63911189  0.73364188  0.00065988
   0.17245463  0.40031823  0.00036131
   0.23912018  0.53363655  0.00047314
   0.37245975  0.20029599  0.00011125
   0.43910710  0.33367342  0.00006970
   0.17245216  0.60031151  0.00065542
   0.23912337  0.73363857  0.00071891
   0.57243108  0.20028917  0.00051662
   0.63911277  0.33361863  0.00057797
   0.37243981  0.60030802  0.00045356
   0.43911609  0.73363786  0.00061774
   0.57246936  0.40032050  0.00042490
   0.63911941  0.53365087  0.00057451
   0.77244572  0.00031543  0.00074520
   0.83911628  0.13364020  0.00071913
   0.77244051  0.20030743  0.00072629
   0.83912024  0.33363573  0.00073183
   0.77244632  0.40029837  0.00072872
   0.83911898  0.53363396  0.00077638
   0.77245614  0.60030817  0.00074464
   0.83911503  0.73364318  0.00078939
   0.97245531  0.80030558  0.00081529
   0.03911471  0.93364329  0.00074756
   0.17245797  0.80031221  0.00077922
   0.23913455  0.93364719  0.00068106
   0.37245140  0.80031667  0.00068925
   0.43912449  0.93364477  0.00067679
   0.57244110  0.80031005  0.00066817
   0.63911507  0.93363899  0.00073456
   0.77244510  0.80031319  0.00075258
   0.83911661  0.93364434  0.00075854
   0.37302101  0.25122688  0.14865089
   0.42087980  0.18931315  0.15187198
   0.32515698  0.31316719  0.14567815
 
 position of ions in cartesian coordinates  (Angst):
  11.98347958  0.00342433  0.01416777
  -0.34154264  1.42664989  0.01100432
   2.12354700  0.00315355  0.01249070
   2.12325634  1.42652621  0.00641170
  10.75098721  2.13818970  0.01213047
  -1.57382270  3.56123457  0.01110375
   0.89078307  2.13853702  0.00547917
   0.89099273  3.56146885  0.00180651
   4.58863896  0.00346260  0.01134782
   4.58893648  1.42622757  0.00645846
   9.51853763  4.27280730  0.01369027
  -2.80632132  5.69591267  0.01433526
   2.12299894  4.27302204  0.00000000
   2.12335237  5.69593607  0.00581036
   7.05344483  0.00333155  0.01398950
   7.05352764  1.42635365  0.01368187
   8.28609598  6.40752033  0.01600723
  -4.03884931  7.83070339  0.01636283
   3.35585531  6.40752662  0.01007237
   3.35598594  7.83071962  0.01319763
  -0.34145776  4.27290193  0.00722612
  -0.34137895  5.69591010  0.00946273
   3.35624236  2.13791198  0.00222492
   3.35573251  3.56155103  0.00139405
  -1.57394684  6.40758280  0.01310850
  -1.57385216  7.83068434  0.01437823
   5.82093107  2.13783916  0.01033241
   5.82114012  3.56096622  0.01155939
   0.89092245  6.40754561  0.00907111
   0.89106251  7.83067670  0.01235474
   4.58870974  4.27292622  0.00849795
   4.58852320  5.69606300  0.01149026
   9.51844972  0.00336679  0.01490402
   9.51855036  1.42644387  0.01438264
   8.28593477  2.13803408  0.01452582
   8.28612680  3.56114872  0.01463668
   7.05356221  4.27268994  0.01457444
   7.05362213  5.69588251  0.01552751
   5.82112285  6.40754723  0.01489279
   5.82101669  7.83073350  0.01578780
   7.05362858  8.54227219  0.01630582
  -5.27148792  9.96548729  0.01495127
  -2.80637951  8.54234295  0.01558431
  -2.80626749  9.96552896  0.01362126
  -0.34148805  8.54239058  0.01378498
  -0.34137657  9.96550309  0.01353576
   2.12342586  8.54231992  0.01336337
   2.12354296  9.96544135  0.01469111
   4.58845581  8.54235337  0.01505154
   4.58852904  9.96549848  0.01517076
   3.04929830  2.68153618  2.97301779
   4.02070129  2.02068374  3.03743965
   2.07766701  3.34267235  2.91356292
 


--------------------------------------------------------------------------------------------------------


 k-point   1 :   0.0000 0.0000 0.0000  plane waves:  189031

 maximum and minimum number of plane-waves per node :    189031   189031

 maximum number of plane-waves:    189031
 maximum index in each direction: 
   IXMAX=   31   IYMAX=   31   IZMAX=   51
   IXMIN=  -31   IYMIN=  -31   IZMIN=  -51


 serial   3D FFT for wavefunctions
 parallel 3D FFT for charge:
    minimum data exchange during FFTs selected (reduces bandwidth)


 total amount of memory used by VASP MPI-rank0   556209. kBytes
=======================================================================

   base      :      30000. kBytes
   nonl-proj :     184518. kBytes
   fftplans  :      31725. kBytes
   grid      :     282516. kBytes
   one-center:        162. kBytes
   wavefun   :      27288. kBytes
 
     INWAV:  cpu time    0.0000: real time    0.0000
 Broyden mixing: mesh for mixing (old mesh)
   NGX = 63   NGY = 63   NGZ =103
  (NGX  =256   NGY  =256   NGZ  =420)
  gives a total of 408807 points

 initial charge density was supplied:
 charge density of overlapping atoms calculated
 number of electron     216.0000000 magnetization 
 keeping initial charge density in first step


--------------------------------------------------------------------------------------------------------


 Maximum index for augmentation-charges          459 (set IRDMAX)


--------------------------------------------------------------------------------------------------------


 First call to EWALD:  gamma=   0.128
 Maximum number of real-space cells 3x 3x 2
 Maximum number of reciprocal cells 3x 3x 4

    FEWALD:  cpu time    0.0037: real time    0.0037


--------------------------------------- Iteration      1(   1)  ---------------------------------------


    POTLOK:  cpu time    1.4698: real time    1.4811
    SETDIJ:  cpu time    0.2443: real time    0.2451
    TRIAL :  cpu time   21.6763: real time   21.9147
    CORREC:  cpu time    0.0005: real time    0.0005
    --------------------------------------------
      LOOP:  cpu time   23.4001: real time   23.6643

 eigenvalue-minimisations  :   336
 total energy-change (2. order) : 0.2427252E+04  (-0.1181323E+05)
 number of electron     216.0000000 magnetization 
 augmentation part      216.0000000 magnetization 

 Free energy of the ion-electron system (eV)
  ---------------------------------------------------
  alpha Z        PSCENC =        59.93625244
  Ewald energy   TEWEN  =     34655.38404633
  -Hartree energ DENC   =    -40829.90294674
  -exchange      EXHF   =         0.00000000
  -V(xc)+E(xc)   XCENC  =       603.15338845
  PAW double counting   =      6339.73130699    -6197.22120962
  entropy T*S    EENTRO =        -0.00000000
  eigenvalues    EBANDS =      -573.35255460
  atomic energy  EATOM  =      8369.52358910
  ---------------------------------------------------
  free energy    TOTEN  =      2427.25187236 eV

  energy without entropy =     2427.25187236  energy(sigma->0) =     2427.25187236


--------------------------------------------------------------------------------------------------------




--------------------------------------- Iteration      1(   2)  ---------------------------------------


    TRIAL :  cpu time   35.5032: real time   35.8050
    CORREC:  cpu time    0.0001: real time    0.0003
    --------------------------------------------
      LOOP:  cpu time   35.5755: real time   35.8806

 eigenvalue-minimisations  :   672
 total energy-change (2. order) :-0.2488006E+04  (-0.2374337E+04)
 number of electron     216.0000000 magnetization 
 augmentation part      216.0000000 magnetization 

 Free energy of the ion-electron system (eV)
  ---------------------------------------------------
  alpha Z        PSCENC =        59.93625244
  Ewald energy   TEWEN  =     34655.38404633
  -Hartree energ DENC   =    -40829.90294674
  -exchange      EXHF   =         0.00000000
  -V(xc)+E(xc)   XCENC  =       603.15338845
  PAW double counting   =      6339.73130699    -6197.22120962
  entropy T*S    EENTRO =        -0.00000000
  eigenvalues    EBANDS =     -3061.35848476
  atomic energy  EATOM  =      8369.52358910
  ---------------------------------------------------
  free energy    TOTEN  =       -60.75405781 eV

  energy without entropy =      -60.75405781  energy(sigma->0) =      -60.75405781


--------------------------------------------------------------------------------------------------------




--------------------------------------- Iteration      1(   3)  ---------------------------------------


    TRIAL :  cpu time   24.0248: real time   24.2123
    CORREC:  cpu time    0.0001: real time    0.0001
    --------------------------------------------
      LOOP:  cpu time   24.0597: real time   24.2610

 eigenvalue-minimisations  :   392
 total energy-change (2. order) :-0.5345046E+03  (-0.5316213E+03)
 number of electron     216.0000000 magnetization 
 augmentation part      216.0000000 magnetization 

 Free energy of the ion-electron system (eV)
  ---------------------------------------------------
  alpha Z        PSCENC =        59.93625244
  Ewald energy   TEWEN  =     34655.38404633
  -Hartree energ DENC   =    -40829.90294674
  -exchange      EXHF   =         0.00000000
  -V(xc)+E(xc)   XCENC  =       603.15338845
  PAW double counting   =      6339.73130699    -6197.22120962
  entropy T*S    EENTRO =        -0.00000000
  eigenvalues    EBANDS =     -3595.86305669
  atomic energy  EATOM  =      8369.52358910
  ---------------------------------------------------
  free energy    TOTEN  =      -595.25862973 eV

  energy without entropy =     -595.25862973  energy(sigma->0) =     -595.25862973


--------------------------------------------------------------------------------------------------------




--------------------------------------- Iteration      1(   4)  ---------------------------------------


    TRIAL :  cpu time   26.3256: real time   26.5257
    CORREC:  cpu time    0.0001: real time    0.0001
    --------------------------------------------
      LOOP:  cpu time   26.3738: real time   26.5775

 eigenvalue-minimisations  :   448
 total energy-change (2. order) :-0.2439450E+02  (-0.2424455E+02)
 number of electron     216.0000000 magnetization 
 augmentation part      216.0000000 magnetization 

 Free energy of the ion-electron system (eV)
  ---------------------------------------------------
  alpha Z        PSCENC =        59.93625244
  Ewald energy   TEWEN  =     34655.38404633
  -Hartree energ DENC   =    -40829.90294674
  -exchange      EXHF   =         0.00000000
  -V(xc)+E(xc)   XCENC  =       603.15338845
  PAW double counting   =      6339.73130699    -6197.22120962
  entropy T*S    EENTRO =        -0.00000000
  eigenvalues    EBANDS =     -3620.25755555
  atomic energy  EATOM  =      8369.52358910
  ---------------------------------------------------
  free energy    TOTEN  =      -619.65312860 eV

  energy without entropy =     -619.65312860  energy(sigma->0) =     -619.65312860


--------------------------------------------------------------------------------------------------------




--------------------------------------- Iteration      1(   5)  ---------------------------------------


    TRIAL :  cpu time   26.3269: real time   26.5302
    CORREC:  cpu time    0.0001: real time    0.0001
    CHARGE:  cpu time    2.2829: real time    2.3006
    --------------------------------------------
      LOOP:  cpu time   28.6588: real time   28.8831

 eigenvalue-minimisations  :   448
 total energy-change (2. order) :-0.8602292E+00  (-0.8563154E+00)
 number of electron     216.0000000 magnetization 
 augmentation part       -0.4308860 magnetization 

 Free energy of the ion-electron system (eV)
  ---------------------------------------------------
  alpha Z        PSCENC =        59.93625244
  Ewald energy   TEWEN  =     34655.38404633
  -Hartree energ DENC   =    -40829.90294674
  -exchange      EXHF   =         0.00000000
  -V(xc)+E(xc)   XCENC  =       603.15338845
  PAW double counting   =      6339.73130699    -6197.22120962
  entropy T*S    EENTRO =        -0.00000000
  eigenvalues    EBANDS =     -3621.11778474
  atomic energy  EATOM  =      8369.52358910
  ---------------------------------------------------
  free energy    TOTEN  =      -620.51335778 eV

  energy without entropy =     -620.51335778  energy(sigma->0) =     -620.51335778


--------------------------------------------------------------------------------------------------------




--------------------------------------- Iteration      1(   6)  ---------------------------------------


    POTLOK:  cpu time    1.4546: real time    1.4620
    SETDIJ:  cpu time    0.2407: real time    0.2415
    TRIAL :  cpu time   15.4485: real time   15.6144
    CORREC:  cpu time    7.1221: real time    7.1700
    CHARGE:  cpu time    2.2838: real time    2.3002
    --------------------------------------------
      LOOP:  cpu time   26.6013: real time   26.8433

 eigenvalue-minimisations  :     0
 total energy-change (2. order) : 0.1038085E+03  (-0.1207351E+02)
 number of electron     216.0000000 magnetization 
 augmentation part       -0.4903590 magnetization 

 Free energy of the ion-electron system (eV)
  ---------------------------------------------------
  alpha Z        PSCENC =        59.93625244
  Ewald energy   TEWEN  =     34655.38404633
  -Hartree energ DENC   =    -42163.07721835
  -exchange      EXHF   =         0.00000000
  -V(xc)+E(xc)   XCENC  =       669.62901664
  PAW double counting   =    113735.95866462  -113599.17060534
  entropy T*S    EENTRO =        -0.00000000
  eigenvalues    EBANDS =     -2244.88860969
  atomic energy  EATOM  =      8369.52358910
  ---------------------------------------------------
  free energy    TOTEN  =      -516.70486425 eV

  energy without entropy =     -516.70486425  energy(sigma->0) =     -516.70486425


--------------------------------------------------------------------------------------------------------




--------------------------------------- Iteration      1(   7)  ---------------------------------------


    POTLOK:  cpu time    1.4404: real time    1.4478
    SETDIJ:  cpu time    0.2364: real time    0.2371
    TRIAL :  cpu time   15.4836: real time   15.6149
    CORREC:  cpu time    7.1261: real time    7.1859
    CHARGE:  cpu time    2.2823: real time    2.2980
    --------------------------------------------
      LOOP:  cpu time   26.6323: real time   26.8499

 eigenvalue-minimisations  :     0
 total energy-change (2. order) :-0.1208280E+02  (-0.1526803E+01)
 number of electron     216.0000000 magnetization 
 augmentation part       -0.5199194 magnetization 

 Free energy of the ion-electron system (eV)
  ---------------------------------------------------
  alpha Z        PSCENC =        59.93625244
  Ewald energy   TEWEN  =     34655.38404633
  -Hartree energ DENC   =    -41738.95342909
  -exchange      EXHF   =         0.00000000
  -V(xc)+E(xc)   XCENC  =       649.77185235
  PAW double counting   =    132147.90182556  -132008.35498473
  entropy T*S    EENTRO =        -0.00000000
  eigenvalues    EBANDS =     -2663.99682081
  atomic energy  EATOM  =      8369.52358910
  ---------------------------------------------------
  free energy    TOTEN  =      -528.78766885 eV

  energy without entropy =     -528.78766885  energy(sigma->0) =     -528.78766885


--------------------------------------------------------------------------------------------------------




--------------------------------------- Iteration      1(   8)  ---------------------------------------


    POTLOK:  cpu time    1.4470: real time    1.4547
    SETDIJ:  cpu time    0.2347: real time    0.2355
    TRIAL :  cpu time   15.4975: real time   15.6125
    CORREC:  cpu time    7.1367: real time    7.1849
    CHARGE:  cpu time    2.2854: real time    2.3017
    --------------------------------------------
      LOOP:  cpu time   26.6425: real time   26.8335

 eigenvalue-minimisations  :     0
 total energy-change (2. order) :-0.1527771E+01  (-0.4916911E+00)
 number of electron     216.0000000 magnetization 
 augmentation part       -0.5181387 magnetization 

 Free energy of the ion-electron system (eV)
  ---------------------------------------------------
  alpha Z        PSCENC =        59.93625244
  Ewald energy   TEWEN  =     34655.38404633
  -Hartree energ DENC   =    -41715.92447150
  -exchange      EXHF   =         0.00000000
  -V(xc)+E(xc)   XCENC  =       648.32400774
  PAW double counting   =    140425.04615171  -140285.03125979
  entropy T*S    EENTRO =        -0.00000000
  eigenvalues    EBANDS =     -2687.57375637
  atomic energy  EATOM  =      8369.52358910
  ---------------------------------------------------
  free energy    TOTEN  =      -530.31544033 eV

  energy without entropy =     -530.31544033  energy(sigma->0) =     -530.31544033


--------------------------------------------------------------------------------------------------------




--------------------------------------- Iteration      1(   9)  ---------------------------------------


    POTLOK:  cpu time    1.4443: real time    1.4576
    SETDIJ:  cpu time    0.2322: real time    0.2332
    TRIAL :  cpu time   15.4941: real time   15.6118
    CORREC:  cpu time    7.1302: real time    7.1839
    CHARGE:  cpu time    2.3062: real time    2.3218
    --------------------------------------------
      LOOP:  cpu time   26.6553: real time   26.8711

 eigenvalue-minimisations  :     0
 total energy-change (2. order) :-0.4912822E+00  (-0.1906267E+00)
 number of electron     216.0000000 magnetization 
 augmentation part       -0.5130437 magnetization 

 Free energy of the ion-electron system (eV)
  ---------------------------------------------------
  alpha Z        PSCENC =        59.93625244
  Ewald energy   TEWEN  =     34655.38404633
  -Hartree energ DENC   =    -41722.45363940
  -exchange      EXHF   =         0.00000000
  -V(xc)+E(xc)   XCENC  =       648.08896537
  PAW double counting   =    146467.51844564  -146327.31169101
  entropy T*S    EENTRO =        -0.00000000
  eigenvalues    EBANDS =     -2681.49269103
  atomic energy  EATOM  =      8369.52358910
  ---------------------------------------------------
  free energy    TOTEN  =      -530.80672256 eV

  energy without entropy =     -530.80672256  energy(sigma->0) =     -530.80672256


--------------------------------------------------------------------------------------------------------




--------------------------------------- Iteration      1(  10)  ---------------------------------------


    POTLOK:  cpu time    1.4422: real time    1.4598
    SETDIJ:  cpu time    0.2377: real time    0.2388
    TRIAL :  cpu time   15.4620: real time   15.6112
    CORREC:  cpu time    7.1312: real time    7.1949
    CHARGE:  cpu time    2.2799: real time    2.3028
    --------------------------------------------
      LOOP:  cpu time   26.5560: real time   26.8472

 eigenvalue-minimisations  :     0
 total energy-change (2. order) :-0.1904021E+00  (-0.8030200E-01)
 number of electron     216.0000000 magnetization 
 augmentation part       -0.5074305 magnetization 

 Free energy of the ion-electron system (eV)
  ---------------------------------------------------
  alpha Z        PSCENC =        59.93625244
  Ewald energy   TEWEN  =     34655.38404633
  -Hartree energ DENC   =    -41721.23957404
  -exchange      EXHF   =         0.00000000
  -V(xc)+E(xc)   XCENC  =       647.89403803
  PAW double counting   =    148763.59750099  -148623.30011350
  entropy T*S    EENTRO =        -0.00000000
  eigenvalues    EBANDS =     -2682.79286403
  atomic energy  EATOM  =      8369.52358910
  ---------------------------------------------------
  free energy    TOTEN  =      -530.99712468 eV

  energy without entropy =     -530.99712468  energy(sigma->0) =     -530.99712468


--------------------------------------------------------------------------------------------------------




--------------------------------------- Iteration      1(  11)  ---------------------------------------


    POTLOK:  cpu time    1.4687: real time    1.4785
    SETDIJ:  cpu time    0.2189: real time    0.2197
    TRIAL :  cpu time   15.4847: real time   15.6099
    CORREC:  cpu time    7.1387: real time    7.1859
    CHARGE:  cpu time    2.2842: real time    2.3001
    --------------------------------------------
      LOOP:  cpu time   26.6996: real time   26.8992

 eigenvalue-minimisations  :     0
 total energy-change (2. order) :-0.8013370E-01  (-0.3155807E-01)
 number of electron     216.0000000 magnetization 
 augmentation part       -0.5041030 magnetization 

 Free energy of the ion-electron system (eV)
  ---------------------------------------------------
  alpha Z        PSCENC =        59.93625244
  Ewald energy   TEWEN  =     34655.38404633
  -Hartree energ DENC   =    -41715.67603903
  -exchange      EXHF   =         0.00000000
  -V(xc)+E(xc)   XCENC  =       647.76043411
  PAW double counting   =    148661.36906561  -148521.07066990
  entropy T*S    EENTRO =        -0.00000000
  eigenvalues    EBANDS =     -2688.30393705
  atomic energy  EATOM  =      8369.52358910
  ---------------------------------------------------
  free energy    TOTEN  =      -531.07725838 eV

  energy without entropy =     -531.07725838  energy(sigma->0) =     -531.07725838


--------------------------------------------------------------------------------------------------------




--------------------------------------- Iteration      1(  12)  ---------------------------------------


    POTLOK:  cpu time    1.4516: real time    1.4594
    SETDIJ:  cpu time    0.2399: real time    0.2407
    TRIAL :  cpu time   15.4668: real time   15.6028
    CORREC:  cpu time    7.1334: real time    7.1818
    CHARGE:  cpu time    2.2830: real time    2.3004
    --------------------------------------------
      LOOP:  cpu time   26.6188: real time   26.8314

 eigenvalue-minimisations  :     0
 total energy-change (2. order) :-0.3152066E-01  (-0.1019690E-01)
 number of electron     216.0000000 magnetization 
 augmentation part       -0.5041721 magnetization 

 Free energy of the ion-electron system (eV)
  ---------------------------------------------------
  alpha Z        PSCENC =        59.93625244
  Ewald energy   TEWEN  =     34655.38404633
  -Hartree energ DENC   =    -41711.24383650
  -exchange      EXHF   =         0.00000000
  -V(xc)+E(xc)   XCENC  =       647.66398737
  PAW double counting   =    147960.70539411  -147820.43206194
  entropy T*S    EENTRO =        -0.00000000
  eigenvalues    EBANDS =     -2692.64614996
  atomic energy  EATOM  =      8369.52358910
  ---------------------------------------------------
  free energy    TOTEN  =      -531.10877904 eV

  energy without entropy =     -531.10877904  energy(sigma->0) =     -531.10877904


--------------------------------------------------------------------------------------------------------




--------------------------------------- Iteration      1(  13)  ---------------------------------------


    POTLOK:  cpu time    1.4547: real time    1.4623
    SETDIJ:  cpu time    0.2381: real time    0.2392
    TRIAL :  cpu time   15.4816: real time   15.6024
    CORREC:  cpu time    7.1326: real time    7.1789
    CHARGE:  cpu time    2.2850: real time    2.3009
    --------------------------------------------
      LOOP:  cpu time   26.6205: real time   26.8334

 eigenvalue-minimisations  :     0
 total energy-change (2. order) :-0.1020240E-01  (-0.2821622E-02)
 number of electron     216.0000000 magnetization 
 augmentation part       -0.5048294 magnetization 

 Free energy of the ion-electron system (eV)
  ---------------------------------------------------
  alpha Z        PSCENC =        59.93625244
  Ewald energy   TEWEN  =     34655.38404633
  -Hartree energ DENC   =    -41709.67999859
  -exchange      EXHF   =         0.00000000
  -V(xc)+E(xc)   XCENC  =       647.61109369
  PAW double counting   =    147438.31805388  -147298.05690082
  entropy T*S    EENTRO =        -0.00000000
  eigenvalues    EBANDS =     -2694.15511747
  atomic energy  EATOM  =      8369.52358910
  ---------------------------------------------------
  free energy    TOTEN  =      -531.11898144 eV

  energy without entropy =     -531.11898144  energy(sigma->0) =     -531.11898144


--------------------------------------------------------------------------------------------------------




--------------------------------------- Iteration      1(  14)  ---------------------------------------


    POTLOK:  cpu time    1.4528: real time    1.4606
    SETDIJ:  cpu time    0.2411: real time    0.2419
    TRIAL :  cpu time   15.4558: real time   15.6020
    CORREC:  cpu time    7.1195: real time    7.1890
    CHARGE:  cpu time    2.2789: real time    2.2951
    --------------------------------------------
      LOOP:  cpu time   26.5777: real time   26.8330

 eigenvalue-minimisations  :     0
 total energy-change (2. order) :-0.2825530E-02  (-0.7318181E-03)
 number of electron     216.0000000 magnetization 
 augmentation part       -0.5050843 magnetization 

 Free energy of the ion-electron system (eV)
  ---------------------------------------------------
  alpha Z        PSCENC =        59.93625244
  Ewald energy   TEWEN  =     34655.38404633
  -Hartree energ DENC   =    -41709.60954719
  -exchange      EXHF   =         0.00000000
  -V(xc)+E(xc)   XCENC  =       647.60608742
  PAW double counting   =    147205.52092760  -147065.26521846
  entropy T*S    EENTRO =        -0.00000000
  eigenvalues    EBANDS =     -2694.21794420
  atomic energy  EATOM  =      8369.52358910
  ---------------------------------------------------
  free energy    TOTEN  =      -531.12180697 eV

  energy without entropy =     -531.12180697  energy(sigma->0) =     -531.12180697


--------------------------------------------------------------------------------------------------------




--------------------------------------- Iteration      1(  15)  ---------------------------------------


    POTLOK:  cpu time    1.4539: real time    1.4613
    SETDIJ:  cpu time    0.2348: real time    0.2355
    TRIAL :  cpu time   15.4989: real time   15.6164
    CORREC:  cpu time    7.1335: real time    7.1800
    CHARGE:  cpu time    2.2806: real time    2.2964
    --------------------------------------------
      LOOP:  cpu time   26.6770: real time   26.8679

 eigenvalue-minimisations  :     0
 total energy-change (2. order) :-0.7320945E-03  (-0.1906564E-03)
 number of electron     216.0000000 magnetization 
 augmentation part       -0.5051928 magnetization 

 Free energy of the ion-electron system (eV)
  ---------------------------------------------------
  alpha Z        PSCENC =        59.93625244
  Ewald energy   TEWEN  =     34655.38404633
  -Hartree energ DENC   =    -41709.52624270
  -exchange      EXHF   =         0.00000000
  -V(xc)+E(xc)   XCENC  =       647.60781146
  PAW double counting   =    147111.67319997  -146971.42011185
  entropy T*S    EENTRO =        -0.00000000
  eigenvalues    EBANDS =     -2694.30108381
  atomic energy  EATOM  =      8369.52358910
  ---------------------------------------------------
  free energy    TOTEN  =      -531.12253906 eV

  energy without entropy =     -531.12253906  energy(sigma->0) =     -531.12253906


--------------------------------------------------------------------------------------------------------




--------------------------------------- Iteration      1(  16)  ---------------------------------------


    POTLOK:  cpu time    1.4547: real time    1.4625
    SETDIJ:  cpu time    0.2384: real time    0.2392
    TRIAL :  cpu time   15.4892: real time   15.6126
    CORREC:  cpu time    7.1184: real time    7.1857
    CHARGE:  cpu time    2.2816: real time    2.2982
    --------------------------------------------
      LOOP:  cpu time   26.6120: real time   26.8287

 eigenvalue-minimisations  :     0
 total energy-change (2. order) :-0.1914286E-03  (-0.5638272E-04)
 number of electron     216.0000000 magnetization 
 augmentation part       -0.5052078 magnetization 

 Free energy of the ion-electron system (eV)
  ---------------------------------------------------
  alpha Z        PSCENC =        59.93625244
  Ewald energy   TEWEN  =     34655.38404633
  -Hartree energ DENC   =    -41709.43434480
  -exchange      EXHF   =         0.00000000
  -V(xc)+E(xc)   XCENC  =       647.60619591
  PAW double counting   =    147057.07171162  -146916.81910369
  entropy T*S    EENTRO =        -0.00000000
  eigenvalues    EBANDS =     -2694.39107740
  atomic energy  EATOM  =      8369.52358910
  ---------------------------------------------------
  free energy    TOTEN  =      -531.12273049 eV

  energy without entropy =     -531.12273049  energy(sigma->0) =     -531.12273049


--------------------------------------------------------------------------------------------------------




--------------------------------------- Iteration      1(  17)  ---------------------------------------


    POTLOK:  cpu time    1.4548: real time    1.4626
    SETDIJ:  cpu time    0.2356: real time    0.2363
    TRIAL :  cpu time   15.4747: real time   15.6138
    CORREC:  cpu time    7.1426: real time    7.1918
    CHARGE:  cpu time    2.2680: real time    2.2912
    --------------------------------------------
      LOOP:  cpu time   26.6230: real time   26.8435

 eigenvalue-minimisations  :     0
 total energy-change (2. order) :-0.5626952E-04  (-0.2102808E-04)
 number of electron     216.0000000 magnetization 
 augmentation part       -0.5052112 magnetization 

 Free energy of the ion-electron system (eV)
  ---------------------------------------------------
  alpha Z        PSCENC =        59.93625244
  Ewald energy   TEWEN  =     34655.38404633
  -Hartree energ DENC   =    -41709.56045385
  -exchange      EXHF   =         0.00000000
  -V(xc)+E(xc)   XCENC  =       647.61246971
  PAW double counting   =    147019.14786204  -146878.89591298
  entropy T*S    EENTRO =        -0.00000000
  eigenvalues    EBANDS =     -2694.27063955
  atomic energy  EATOM  =      8369.52358910
  ---------------------------------------------------
  free energy    TOTEN  =      -531.12278676 eV

  energy without entropy =     -531.12278676  energy(sigma->0) =     -531.12278676


--------------------------------------------------------------------------------------------------------




--------------------------------------- Iteration      1(  18)  ---------------------------------------


    POTLOK:  cpu time    1.4536: real time    1.4610
    SETDIJ:  cpu time    0.2397: real time    0.2404
    TRIAL :  cpu time   15.4748: real time   15.6130
    CORREC:  cpu time    7.1083: real time    7.1832
    CHARGE:  cpu time    2.2844: real time    2.3005
    --------------------------------------------
      LOOP:  cpu time   26.6678: real time   26.9075

 eigenvalue-minimisations  :     0
 total energy-change (2. order) :-0.2064341E-04  (-0.7943636E-05)
 number of electron     216.0000000 magnetization 
 augmentation part       -0.5052373 magnetization 

 Free energy of the ion-electron system (eV)
  ---------------------------------------------------
  alpha Z        PSCENC =        59.93625244
  Ewald energy   TEWEN  =     34655.38404633
  -Hartree energ DENC   =    -41709.64338230
  -exchange      EXHF   =         0.00000000
  -V(xc)+E(xc)   XCENC  =       647.61589945
  PAW double counting   =    147001.85246577  -146861.60051746
  entropy T*S    EENTRO =        -0.00000000
  eigenvalues    EBANDS =     -2694.19116074
  atomic energy  EATOM  =      8369.52358910
  ---------------------------------------------------
  free energy    TOTEN  =      -531.12280740 eV

  energy without entropy =     -531.12280740  energy(sigma->0) =     -531.12280740


--------------------------------------------------------------------------------------------------------




--------------------------------------- Iteration      1(  19)  ---------------------------------------


    POTLOK:  cpu time    1.4449: real time    1.4623
    SETDIJ:  cpu time    0.2370: real time    0.2383
    TRIAL :  cpu time   15.4524: real time   15.6085
    CORREC:  cpu time    7.1312: real time    7.1785
    CHARGE:  cpu time    2.2822: real time    2.3006
    --------------------------------------------
      LOOP:  cpu time   26.5974: real time   26.8570

 eigenvalue-minimisations  :     0
 total energy-change (2. order) :-0.7802824E-05  (-0.3806508E-05)
 number of electron     216.0000000 magnetization 
 augmentation part       -0.5052517 magnetization 

 Free energy of the ion-electron system (eV)
  ---------------------------------------------------
  alpha Z        PSCENC =        59.93625244
  Ewald energy   TEWEN  =     34655.38404633
  -Hartree energ DENC   =    -41709.64815000
  -exchange      EXHF   =         0.00000000
  -V(xc)+E(xc)   XCENC  =       647.61549689
  PAW double counting   =    147003.06518784  -146862.81273677
  entropy T*S    EENTRO =        -0.00000000
  eigenvalues    EBANDS =     -2694.18650103
  atomic energy  EATOM  =      8369.52358910
  ---------------------------------------------------
  free energy    TOTEN  =      -531.12281521 eV

  energy without entropy =     -531.12281521  energy(sigma->0) =     -531.12281521


--------------------------------------------------------------------------------------------------------




--------------------------------------- Iteration      1(  20)  ---------------------------------------


    POTLOK:  cpu time    1.4667: real time    1.4746
    SETDIJ:  cpu time    0.2240: real time    0.2247
    TRIAL :  cpu time   15.5000: real time   15.6119
    CORREC:  cpu time    7.1559: real time    7.2041
    CHARGE:  cpu time    2.2797: real time    2.2959
    --------------------------------------------
      LOOP:  cpu time   26.6850: real time   26.8722

 eigenvalue-minimisations  :     0
 total energy-change (2. order) :-0.3062742E-05  (-0.7741152E-06)
 number of electron     216.0000000 magnetization 
 augmentation part       -0.5052588 magnetization 

 Free energy of the ion-electron system (eV)
  ---------------------------------------------------
  alpha Z        PSCENC =        59.93625244
  Ewald energy   TEWEN  =     34655.38404633
  -Hartree energ DENC   =    -41709.68470654
  -exchange      EXHF   =         0.00000000
  -V(xc)+E(xc)   XCENC  =       647.61665516
  PAW double counting   =    147011.67616840  -146871.42354278
  entropy T*S    EENTRO =        -0.00000000
  eigenvalues    EBANDS =     -2694.15128038
  atomic energy  EATOM  =      8369.52358910
  ---------------------------------------------------
  free energy    TOTEN  =      -531.12281827 eV

  energy without entropy =     -531.12281827  energy(sigma->0) =     -531.12281827


--------------------------------------------------------------------------------------------------------




--------------------------------------- Iteration      1(  21)  ---------------------------------------


    POTLOK:  cpu time    1.4616: real time    1.4696
    SETDIJ:  cpu time    0.2300: real time    0.2322
    TRIAL :  cpu time   15.4789: real time   15.6163
    CORREC:  cpu time    7.1188: real time    7.1844
    CHARGE:  cpu time    2.2830: real time    2.3001
    --------------------------------------------
      LOOP:  cpu time   26.6642: real time   26.8970

 eigenvalue-minimisations  :     0
 total energy-change (2. order) :-0.7659837E-06  (-0.3727674E-06)
 number of electron     216.0000000 magnetization 
 augmentation part       -0.5052568 magnetization 

 Free energy of the ion-electron system (eV)
  ---------------------------------------------------
  alpha Z        PSCENC =        59.93625244
  Ewald energy   TEWEN  =     34655.38404633
  -Hartree energ DENC   =    -41709.68479476
  -exchange      EXHF   =         0.00000000
  -V(xc)+E(xc)   XCENC  =       647.61633158
  PAW double counting   =    147014.92128469  -146874.66857307
  entropy T*S    EENTRO =        -0.00000000
  eigenvalues    EBANDS =     -2694.15095534
  atomic energy  EATOM  =      8369.52358910
  ---------------------------------------------------
  free energy    TOTEN  =      -531.12281903 eV

  energy without entropy =     -531.12281903  energy(sigma->0) =     -531.12281903


--------------------------------------------------------------------------------------------------------




--------------------------------------- Iteration      1(  22)  ---------------------------------------


    POTLOK:  cpu time    1.4760: real time    1.4848
    SETDIJ:  cpu time    0.2135: real time    0.2143
    TRIAL :  cpu time   15.4929: real time   15.6103
    CORREC:  cpu time    7.1284: real time    7.1797
    CHARGE:  cpu time    2.2727: real time    2.2889
    --------------------------------------------
      LOOP:  cpu time   26.6262: real time   26.8251

 eigenvalue-minimisations  :     0
 total energy-change (2. order) :-0.3443565E-06  (-0.1722376E-06)
 number of electron     216.0000000 magnetization 
 augmentation part       -0.5052513 magnetization 

 Free energy of the ion-electron system (eV)
  ---------------------------------------------------
  alpha Z        PSCENC =        59.93625244
  Ewald energy   TEWEN  =     34655.38404633
  -Hartree energ DENC   =    -41709.68085704
  -exchange      EXHF   =         0.00000000
  -V(xc)+E(xc)   XCENC  =       647.61609513
  PAW double counting   =    147015.48392819  -146875.23123688
  entropy T*S    EENTRO =        -0.00000000
  eigenvalues    EBANDS =     -2694.15463665
  atomic energy  EATOM  =      8369.52358910
  ---------------------------------------------------
  free energy    TOTEN  =      -531.12281938 eV

  energy without entropy =     -531.12281938  energy(sigma->0) =     -531.12281938


--------------------------------------------------------------------------------------------------------




--------------------------------------- Iteration      1(  23)  ---------------------------------------


    POTLOK:  cpu time    1.4545: real time    1.4621
    SETDIJ:  cpu time    0.2345: real time    0.2352
    TRIAL :  cpu time   15.4887: real time   15.6098
    CORREC:  cpu time    7.1202: real time    7.1809
    CHARGE:  cpu time    2.2762: real time    2.2964
    --------------------------------------------
      LOOP:  cpu time   26.6113: real time   26.8304

 eigenvalue-minimisations  :     0
 total energy-change (2. order) :-0.1527078E-06  (-0.6243834E-07)
 number of electron     216.0000000 magnetization 
 augmentation part       -0.5052485 magnetization 

 Free energy of the ion-electron system (eV)
  ---------------------------------------------------
  alpha Z        PSCENC =        59.93625244
  Ewald energy   TEWEN  =     34655.38404633
  -Hartree energ DENC   =    -41709.67825829
  -exchange      EXHF   =         0.00000000
  -V(xc)+E(xc)   XCENC  =       647.61604293
  PAW double counting   =    147015.33831033  -146875.08568482
  entropy T*S    EENTRO =        -0.00000000
  eigenvalues    EBANDS =     -2694.15711755
  atomic energy  EATOM  =      8369.52358910
  ---------------------------------------------------
  free energy    TOTEN  =      -531.12281953 eV

  energy without entropy =     -531.12281953  energy(sigma->0) =     -531.12281953


--------------------------------------------------------------------------------------------------------




--------------------------------------- Iteration      1(  24)  ---------------------------------------


    POTLOK:  cpu time    1.4522: real time    1.4607
    SETDIJ:  cpu time    0.2383: real time    0.2392
    TRIAL :  cpu time   15.4535: real time   15.6190
    CORREC:  cpu time    7.1280: real time    7.1842
    EDDIAG:  cpu time    3.1879: real time    3.2306
    CHARGE:  cpu time    2.2757: real time    2.2960
    --------------------------------------------
      LOOP:  cpu time   29.7624: real time   30.1036

 eigenvalue-minimisations  :     0
 total energy-change (2. order) :-0.3713649E-07  (-0.2252557E-07)
 number of electron     216.0000000 magnetization 
 augmentation part       -0.5052487 magnetization 

 Free energy of the ion-electron system (eV)
  ---------------------------------------------------
  alpha Z        PSCENC =        59.93625244
  Ewald energy   TEWEN  =     34655.38404633
  -Hartree energ DENC   =    -41709.67600472
  -exchange      EXHF   =         0.00000000
  -V(xc)+E(xc)   XCENC  =       647.61599669
  PAW double counting   =    147015.22572175  -146874.97313330
  entropy T*S    EENTRO =        -0.00000000
  eigenvalues    EBANDS =     -2694.15928786
  atomic energy  EATOM  =      8369.52358910
  ---------------------------------------------------
  free energy    TOTEN  =      -531.12281957 eV

  energy without entropy =     -531.12281957  energy(sigma->0) =     -531.12281957


--------------------------------------------------------------------------------------------------------


  average scaling for gradient   0.8471


 average (electrostatic) potential at core
  the test charge radii are     0.5770  0.5955
  (the norm of the test charge is              1.0000)
       1 -87.7349       2 -87.7270       3 -87.7419       4 -87.7491       5 -87.7221
       6 -87.7165       7 -87.7331       8 -87.7092       9 -87.7200      10 -87.7231
      11 -87.7192      12 -87.7264      13 -87.7203      14 -87.7141      15 -87.7162
      16 -87.7179      17 -87.7250      18 -87.7290      19 -87.7303      20 -87.7239
      21 -87.7117      22 -87.7114      23 -87.7435      24 -87.7394      25 -87.7204
      26 -87.7221      27 -87.7174      28 -87.7354      29 -87.7178      30 -87.7168
      31 -87.7427      32 -87.7318      33 -87.7296      34 -87.7231      35 -87.7167
      36 -87.7237      37 -87.7219      38 -87.7297      39 -87.7292      40 -87.7287
      41 -87.7308      42 -87.7345      43 -87.7256      44 -87.7336      45 -87.7193
      46 -87.7168      47 -87.7262      48 -87.7216      49 -87.7299      50 -87.7280
      51 -91.7725      52-123.8902      53-123.8991
 
 
 
 E-fermi :  -4.0547     XC(G=0):  -2.3111     alpha+bet : -2.1113

 Fermi energy:        -4.0547305915

 k-point     1 :       0.0000    0.0000    0.0000
  band No.  band energies     occupation 
      1     -28.8317      2.00000
      2     -27.8057      2.00000
      3     -23.2344      2.00000
      4     -22.2596      2.00000
      5     -22.2529      2.00000
      6     -22.2462      2.00000
      7     -22.2458      2.00000
      8     -22.2424      2.00000
      9     -22.2387      2.00000
     10     -20.3229      2.00000
     11     -20.3205      2.00000
     12     -20.3144      2.00000
     13     -20.3130      2.00000
     14     -20.3118      2.00000
     15     -20.3114      2.00000
     16     -19.3851      2.00000
     17     -19.3829      2.00000
     18     -19.3804      2.00000
     19     -19.3782      2.00000
     20     -19.3773      2.00000
     21     -19.3768      2.00000
     22     -17.1647      2.00000
     23     -17.1630      2.00000
     24     -17.1597      2.00000
     25     -17.1590      2.00000
     26     -17.1549      2.00000
     27     -17.1542      2.00000
     28     -16.0045      2.00000
     29     -16.0034      2.00000
     30     -15.9994      2.00000
     31     -15.9988      2.00000
     32     -15.9974      2.00000
     33     -15.9969      2.00000
     34     -14.6099      2.00000
     35     -14.6093      2.00000
     36     -14.6088      2.00000
     37     -14.6063      2.00000
     38     -14.6060      2.00000
     39     -14.6053      2.00000
     40     -12.8075      2.00000
     41     -12.1519      2.00000
     42     -12.1514      2.00000
     43     -12.1480      2.00000
     44     -12.1477      2.00000
     45     -12.1474      2.00000
     46     -12.1470      2.00000
     47     -11.9344      2.00000
     48     -11.9332      2.00000
     49     -11.9308      2.00000
     50     -11.9307      2.00000
     51     -11.9265      2.00000
     52     -11.9263      2.00000
     53     -11.5349      2.00000
     54     -11.3926      2.00000
     55     -11.2707      2.00000
     56     -10.5480      2.00000
     57     -10.4851      2.00000
     58     -10.4850      2.00000
     59     -10.4838      2.00000
     60     -10.4836      2.00000
     61     -10.4825      2.00000
     62     -10.4821      2.00000
     63      -9.4241      2.00000
     64      -9.4202      2.00000
     65      -9.4184      2.00000
     66      -9.4143      2.00000
     67      -9.4124      2.00000
     68      -9.3550      2.00000
     69      -9.1901      2.00000
     70      -9.1869      2.00000
     71      -9.1854      2.00000
     72      -9.1848      2.00000
     73      -9.1833      2.00000
     74      -9.1826      2.00000
     75      -9.1818      2.00000
     76      -9.1805      2.00000
     77      -9.1802      2.00000
     78      -9.1796      2.00000
     79      -9.1788      2.00000
     80      -9.1771      2.00000
     81      -7.7588      2.00000
     82      -7.6855      2.00000
     83      -7.4796      2.00000
     84      -7.4786      2.00000
     85      -7.4784      2.00000
     86      -7.4747      2.00000
     87      -7.4721      2.00000
     88      -7.4717      2.00000
     89      -7.1883      2.00000
     90      -7.1807      2.00000
     91      -7.1733      2.00000
     92      -7.1696      2.00000
     93      -7.1666      2.00000
     94      -7.0876      2.00000
     95      -6.2441      2.00000
     96      -6.2408      2.00000
     97      -6.2328      2.00000
     98      -6.2300      2.00000
     99      -6.2246      2.00000
    100      -6.1936      2.00000
    101      -5.9609      2.00000
    102      -5.9584      2.00000
    103      -4.1497      2.00000
    104      -4.1438      2.00000
    105      -4.1386      2.00000
    106      -4.1357      2.00000
    107      -4.1313      2.00000
    108      -4.1304      2.00000
    109      -1.1804      0.00000
    110      -1.1769      0.00000
    111      -1.1626      0.00000
    112      -1.1596      0.00000
    113      -1.1578      0.00000
    114      -1.1544      0.00000
    115       0.7904      0.00000
    116       0.8009      0.00000
    117       0.8088      0.00000
    118       0.8187      0.00000
    119       0.8213      0.00000
    120       0.8241      0.00000
    121       0.9186      0.00000
    122       1.5940      0.00000
    123       1.5968      0.00000
    124       1.6283      0.00000
    125       1.9531      0.00000
    126       2.0542      0.00000
    127       2.2889      0.00000
    128       2.3331      0.00000
    129       2.3366      0.00000
    130       2.3428      0.00000
    131       2.4333      0.00000
    132       2.6817      0.00000
    133       2.6868      0.00000
    134       2.6981      0.00000
    135       2.6997      0.00000
    136       2.7031      0.00000
    137       2.7174      0.00000
    138       2.8548      0.00000
    139       2.9544      0.00000
    140       3.0341      0.00000
    141       3.1085      0.00000
    142       3.1178      0.00000
    143       3.1195      0.00000
    144       3.1568      0.00000
    145       3.2612      0.00000
    146       3.3154      0.00000
    147       3.3512      0.00000
    148       3.3835      0.00000
    149       3.4166      0.00000
    150       3.5004      0.00000
    151       3.7279      0.00000
    152       4.5760      0.00000
    153       4.6652      0.00000
    154       4.7497      0.00000
    155       4.8492      0.00000
    156       5.0259      0.00000
    157       5.2653      0.00000
    158       5.2661      0.00000
    159       5.2919      0.00000
    160       5.2998      0.00000
    161       5.3041      0.00000
    162       5.3050      0.00000
    163       5.3069      0.00000
    164       5.3437      0.00000
    165       5.4869      0.00000
    166       5.5395      0.00000
    167       5.6341      0.00000
    168       5.8202      0.00000


--------------------------------------------------------------------------------------------------------


 soft charge-density along one line, spin component           1
         0         1         2         3         4         5         6         7         8         9
 total charge-density along one line
 
 pseudopotential strength for first ion, spin component:           1
 12.630  21.251  -0.000   0.000   0.000  -0.000   0.000   0.000
 21.251  35.756  -0.000   0.000   0.000  -0.000   0.000   0.000
 -0.000  -0.000  -3.234   0.000   0.000  -5.794   0.000   0.000
  0.000   0.000   0.000  -3.238   0.000   0.000  -5.800   0.000
  0.000   0.000   0.000   0.000  -3.234   0.000   0.000  -5.794
 -0.000  -0.000  -5.794   0.000   0.000 -10.358   0.000   0.000
  0.000   0.000   0.000  -5.800   0.000   0.000 -10.368   0.000
  0.000   0.000   0.000   0.000  -5.794   0.000   0.000 -10.358
 total augmentation occupancy for first ion, spin component:           1
  9.642  -3.598  -0.000  -0.002  -0.000   0.000   0.001  -0.000
 -3.598   1.373  -0.000   0.001   0.000   0.000  -0.000  -0.000
 -0.000  -0.000   8.197  -0.009   0.001  -2.895   0.004  -0.000
 -0.002   0.001  -0.009   3.782  -0.000   0.004  -1.106  -0.000
 -0.000   0.000   0.001  -0.000   8.196  -0.000  -0.000  -2.895
  0.000   0.000  -2.895   0.004  -0.000   1.036  -0.001   0.000
  0.001  -0.000   0.004  -1.106  -0.000  -0.001   0.329   0.000
 -0.000  -0.000  -0.000  -0.000  -2.895   0.000   0.000   1.035


------------------------ aborting loop because EDIFF is reached ----------------------------------------


    FORLOC:  cpu time    0.1048: real time    0.1056
    FORNL :  cpu time    2.8970: real time    2.9194
    FORCOR:  cpu time    1.5126: real time    1.5204
    OFIELD:  cpu time    0.0024: real time    0.0025

 VOLUME and BASIS-vectors are now :
 -----------------------------------------------------------------------------
  energy-cutoff  :     1000.00
  volume of cell :     2631.08
      direct lattice vectors                 reciprocal lattice vectors
    12.325000000  0.000000000  0.000000000     0.081135903  0.046843835  0.000000000
    -6.162500000 10.673763102  0.000000000     0.000000000  0.093687670  0.000000000
     0.000000000  0.000000000 20.000000000     0.000000000  0.000000000  0.050000000

  length of vectors
    12.325000000 12.325000000 20.000000000     0.093687670  0.093687670  0.050000000


 FORCES acting on ions:
    Electron-Ion                     Ewald-Force                    Non-Local-Force
 -----------------------------------------------------------------------------------------------
   0.121E+02 0.106E+02 0.226E+02   -.121E+02 -.106E+02 -.226E+02   0.559E-02 -.114E-02 0.116E-01
   0.202E+02 0.101E+02 0.308E+02   -.203E+02 -.101E+02 -.308E+02   0.161E-01 -.296E-03 -.996E-02
   0.102E+02 0.259E+02 0.395E+02   -.102E+02 -.260E+02 -.395E+02   0.833E-02 0.580E-01 0.405E-01
   0.168E+02 0.247E+02 0.675E+02   -.169E+02 -.247E+02 -.676E+02   0.755E-01 0.435E-01 0.111E+00
   0.132E+02 0.313E+01 0.227E+02   -.132E+02 -.312E+01 -.226E+02   -.915E-02 -.519E-02 -.575E-02
   0.139E+02 -.234E+01 0.233E+02   -.139E+02 0.235E+01 -.232E+02   -.301E-01 0.551E-02 -.153E-01
   0.283E+02 0.118E+02 0.568E+02   -.284E+02 -.117E+02 -.568E+02   0.590E-01 -.630E-01 -.176E-01
   0.282E+02 -.942E+01 0.611E+02   -.282E+02 0.946E+01 -.610E+02   -.411E-02 -.203E-01 -.154E+00
   -.113E+02 0.242E+02 0.410E+02   0.113E+02 -.241E+02 -.410E+02   -.670E-02 -.377E-02 -.472E-01
   -.213E+02 0.182E+02 0.659E+02   0.213E+02 -.183E+02 -.659E+02   -.606E-01 0.470E-01 -.137E+00
   0.322E+01 -.282E+01 0.176E+02   -.320E+01 0.280E+01 -.176E+02   -.887E-02 0.454E-02 -.436E-02
   0.254E+01 -.205E+01 0.162E+02   -.254E+01 0.205E+01 -.162E+02   -.911E-02 -.326E-02 0.360E-02
   0.107E+02 -.262E+02 0.710E+02   -.108E+02 0.263E+02 -.709E+02   0.107E+00 -.391E-02 -.153E+00
   0.477E+01 -.263E+02 0.403E+02   -.480E+01 0.263E+02 -.403E+02   0.289E-01 -.332E-03 -.429E-01
   -.118E+02 0.746E+01 0.222E+02   0.118E+02 -.745E+01 -.222E+02   0.173E-01 -.719E-02 -.706E-02
   -.178E+02 0.497E+01 0.267E+02   0.178E+02 -.498E+01 -.267E+02   0.541E-04 0.120E-01 -.308E-01
   -.173E+01 -.697E+00 0.154E+02   0.174E+01 0.708E+00 -.154E+02   0.220E-02 -.197E-01 0.237E-02
   0.964E+00 0.641E+01 0.167E+02   -.966E+00 -.640E+01 -.167E+02   -.254E-03 -.975E-02 0.929E-02
   -.369E+01 -.212E+02 0.292E+02   0.367E+01 0.212E+02 -.292E+02   0.261E-01 -.124E-01 0.110E-01
   -.152E+01 -.997E+01 0.188E+02   0.152E+01 0.998E+01 -.188E+02   -.108E-01 -.148E-01 0.138E-03
   0.213E+02 -.923E+01 0.339E+02   -.212E+02 0.921E+01 -.338E+02   -.116E-01 0.428E-02 -.559E-01
   0.123E+02 -.107E+02 0.253E+02   -.123E+02 0.107E+02 -.253E+02   -.139E-01 0.228E-01 -.141E-01
   -.529E+01 0.123E+02 0.897E+02   0.539E+01 -.124E+02 -.899E+02   -.865E-01 0.825E-01 0.402E-01
   -.986E+01 -.196E+02 0.838E+02   0.978E+01 0.197E+02 -.839E+02   0.705E-01 -.761E-01 0.550E-01
   0.559E+01 -.249E+01 0.177E+02   -.557E+01 0.249E+01 -.177E+02   -.742E-02 -.490E-02 -.106E-01
   0.100E+01 0.503E+01 0.180E+02   -.100E+01 -.503E+01 -.180E+02   0.190E-02 -.216E-02 0.997E-03
   -.280E+02 0.311E+01 0.462E+02   0.280E+02 -.316E+01 -.461E+02   0.579E-02 0.386E-01 -.508E-01
   -.252E+02 -.109E+02 0.406E+02   0.253E+02 0.109E+02 -.406E+02   -.437E-01 0.383E-01 0.185E-01
   0.753E+01 -.155E+02 0.267E+02   -.754E+01 0.155E+02 -.267E+02   0.982E-02 0.129E-01 -.259E-01
   0.701E+00 -.559E+01 0.191E+02   -.715E+00 0.558E+01 -.191E+02   0.343E-02 0.850E-02 -.526E-02
   -.209E+02 -.226E+02 0.519E+02   0.209E+02 0.227E+02 -.519E+02   -.531E-01 -.382E-01 0.820E-01
   -.115E+02 -.208E+02 0.316E+02   0.115E+02 0.209E+02 -.317E+02   -.858E-02 -.431E-01 0.234E-01
   0.655E+00 0.266E+01 0.160E+02   -.648E+00 -.266E+01 -.160E+02   -.626E-02 -.469E-02 0.580E-02
   0.186E+01 0.270E+01 0.175E+02   -.186E+01 -.269E+01 -.175E+02   -.121E-01 0.159E-02 -.616E-02
   -.822E+01 0.987E+00 0.196E+02   0.822E+01 -.100E+01 -.196E+02   0.407E-02 0.775E-02 0.137E-02
   -.703E+01 -.280E+01 0.189E+02   0.704E+01 0.279E+01 -.189E+02   -.122E-01 0.883E-02 -.525E-02
   -.144E+02 -.754E+01 0.233E+02   0.145E+02 0.754E+01 -.233E+02   -.186E-01 -.660E-02 0.356E-02
   -.821E+01 -.666E+01 0.186E+02   0.822E+01 0.667E+01 -.186E+02   -.111E-01 -.123E-01 0.109E-01
   -.774E+01 -.101E+02 0.203E+02   0.775E+01 0.102E+02 -.203E+02   -.172E-01 -.279E-01 0.782E-02
   -.113E+01 -.237E+01 0.166E+02   0.113E+01 0.239E+01 -.166E+02   -.694E-02 -.160E-01 0.869E-02
   0.290E+01 0.692E+01 0.176E+02   -.290E+01 -.693E+01 -.176E+02   -.263E-02 0.359E-03 0.725E-02
   0.979E+01 0.153E+02 0.244E+02   -.980E+01 -.153E+02 -.244E+02   0.137E-01 0.161E-01 0.121E-01
   0.765E+00 0.125E+02 0.200E+02   -.765E+00 -.125E+02 -.200E+02   0.725E-02 0.251E-02 -.198E-02
   0.201E+00 0.241E+02 0.330E+02   -.177E+00 -.241E+02 -.330E+02   -.254E-01 0.123E-01 0.130E-01
   -.237E+01 0.473E+01 0.191E+02   0.237E+01 -.472E+01 -.191E+02   0.108E-01 -.106E-01 -.789E-02
   -.101E+02 0.130E+02 0.253E+02   0.101E+02 -.130E+02 -.253E+02   0.353E-02 -.457E-02 -.221E-01
   -.166E+01 -.471E+01 0.173E+02   0.166E+01 0.471E+01 -.173E+02   0.454E-02 -.284E-02 0.154E-02
   -.439E+01 0.180E+01 0.165E+02   0.438E+01 -.180E+01 -.165E+02   -.131E-02 -.270E-02 -.821E-02
   0.342E+00 -.292E+01 0.162E+02   -.333E+00 0.292E+01 -.162E+02   -.666E-02 -.115E-01 0.667E-02
   0.463E+01 0.339E+01 0.165E+02   -.462E+01 -.339E+01 -.165E+02   -.117E-01 0.545E-02 0.384E-02
   0.228E+00 -.150E+00 -.386E+03   -.204E+00 0.128E+00 0.386E+03   -.341E-01 0.248E-01 -.735E-01
   -.228E+03 0.155E+03 -.591E+03   0.279E+03 -.190E+03 0.594E+03   -.525E+02 0.358E+02 -.304E+01
   0.228E+03 -.155E+03 -.570E+03   -.279E+03 0.190E+03 0.567E+03   0.525E+02 -.358E+02 0.362E+01
 -----------------------------------------------------------------------------------------------
   0.418E-01 0.926E-03 -.103E+00   0.000E+00 0.284E-13 0.682E-12   -.626E-01 0.126E-01 0.158E+00
 
 
 POSITION                                       TOTAL-FORCE (eV/Angst)
 -----------------------------------------------------------------------------------
     11.98348      0.00342      0.01417        -0.008539      0.007178     -0.004607
     -0.34154      1.42665      0.01100        -0.008854      0.022102     -0.002102
      2.12355      0.00315      0.01249         0.014936     -0.007064      0.002148
      2.12326      1.42653      0.00641         0.008574      0.023359     -0.000125
     10.75099      2.13819      0.01213        -0.007851      0.018791      0.000737
     -1.57382      3.56123      0.01110        -0.022861      0.016461      0.000020
      0.89078      2.13854      0.00548        -0.011049      0.037292     -0.007853
      0.89099      3.56147      0.00181        -0.007754      0.026496     -0.033940
      4.58864      0.00346      0.01135         0.031600      0.015261     -0.002775
      4.58894      1.42623      0.00646         0.038101      0.004899     -0.047821
      9.51854      4.27281      0.01369         0.018505     -0.006024      0.000307
     -2.80632      5.69591      0.01434        -0.010554     -0.014828      0.000887
      2.12300      4.27302      0.00000        -0.016799      0.043513     -0.061458
      2.12335      5.69594      0.00581        -0.000539     -0.028134      0.000614
      7.05344      0.00333      0.01399         0.003827     -0.012001      0.001676
      7.05353      1.42635      0.01368        -0.006371      0.014045     -0.002053
      8.28610      6.40752      0.01601         0.020455     -0.024045     -0.001417
     -4.03885      7.83070      0.01636         0.005522     -0.015346     -0.002275
      3.35586      6.40753      0.01007        -0.014377     -0.009107      0.000826
      3.35599      7.83072      0.01320        -0.017587     -0.010351     -0.000456
     -0.34146      4.27290      0.00723         0.020907      0.009214     -0.000853
     -0.34138      5.69591      0.00946        -0.010140      0.002132      0.005207
      3.35624      2.13791      0.00222         0.017217      0.011816     -0.076074
      3.35573      3.56155      0.00139         0.013745      0.019489     -0.046326
     -1.57395      6.40758      0.01311         0.033139     -0.013884     -0.001541
     -1.57385      7.83068      0.01438         0.010327     -0.002618     -0.000273
      5.82093      2.13784      0.01033        -0.004280     -0.012872     -0.003425
      5.82114      3.56097      0.01156         0.008840     -0.006780      0.003428
      0.89092      6.40755      0.00907         0.001436     -0.001525      0.000927
      0.89106      7.83068      0.01235        -0.010906      0.002833      0.002246
      4.58871      4.27293      0.00850        -0.005574     -0.001802      0.008201
      4.58852      5.69606      0.01149         0.000139     -0.008772      0.000107
      9.51845      0.00337      0.01490        -0.015630     -0.008512     -0.000767
      9.51855      1.42644      0.01438        -0.030210      0.027082     -0.000938
      8.28593      2.13803      0.01453        -0.001899     -0.003190      0.002219
      8.28613      3.56115      0.01464        -0.012798     -0.003958     -0.001274
      7.05356      4.27269      0.01457         0.003325     -0.008379      0.001767
      7.05362      5.69588      0.01553        -0.002188     -0.030428     -0.001321
      5.82112      6.40755      0.01489        -0.014177     -0.019971     -0.002052
      5.82102      7.83073      0.01579        -0.009183     -0.017577     -0.002457
      7.05363      8.54227      0.01631         0.001296     -0.014229     -0.001872
     -5.27149      9.96549      0.01495        -0.000080     -0.001160     -0.006272
     -2.80638      8.54234      0.01558         0.028391     -0.013774     -0.002021
     -2.80627      9.96553      0.01362         0.017811      0.003532     -0.000215
     -0.34149      8.54239      0.01378         0.024684     -0.012162     -0.000502
     -0.34138      9.96550      0.01354         0.010912      0.014122      0.001150
      2.12343      8.54232      0.01336        -0.011623     -0.012935      0.000327
      2.12354      9.96544      0.01469        -0.028175      0.013989     -0.002427
      4.58846      8.54235      0.01505        -0.016407     -0.019971     -0.000188
      4.58853      9.96550      0.01517        -0.024747      0.009343     -0.001224
      3.04930      2.68154      2.97302        -0.026022      0.010950      0.012636
      4.02070      2.02068      3.03744        -1.619380      1.098444      0.023674
      2.07767      3.34267      2.91356         1.642865     -1.110941      0.249798
 -----------------------------------------------------------------------------------
    total drift:                               -0.020802      0.013568      0.054519


--------------------------------------------------------------------------------------------------------



  FREE ENERGIE OF THE ION-ELECTRON SYSTEM (eV)
  ---------------------------------------------------
  free  energy   TOTEN  =      -531.12281957 eV

  energy  without entropy=     -531.12281957  energy(sigma->0) =     -531.12281957
 


--------------------------------------------------------------------------------------------------------


    POTLOK:  cpu time    1.6895: real time    1.6985


--------------------------------------------------------------------------------------------------------


 writing wavefunctions
     LOOP+:  cpu time  676.7596: real time  682.9526
    4ORBIT:  cpu time    0.0000: real time    0.0000

 total amount of memory used by VASP MPI-rank0   556209. kBytes
=======================================================================

   base      :      30000. kBytes
   nonl-proj :     184518. kBytes
   fftplans  :      31725. kBytes
   grid      :     282516. kBytes
   one-center:        162. kBytes
   wavefun   :      27288. kBytes
 
  
  
 General timing and accounting informations for this job:
 ========================================================
  
                  Total CPU time used (sec):      713.669
                            User time (sec):      690.641
                          System time (sec):       23.028
                         Elapsed time (sec):      721.536
  
                   Maximum memory used (kb):     1031080.
                   Average memory used (kb):          N/A
  
                          Minor page faults:       190781
                          Major page faults:           65
                 Voluntary context switches:         3543
