 vasp.6.2.1 16May21 (build Nov 06 2021 14:46:37) complex                        
  
 executed on             LinuxIFC date 2025.04.16  22:01:36
 running on  112 total cores
 distrk:  each k-point on   56 cores,    2 groups
 distr:  one band on NCORE=   1 cores,   56 groups


--------------------------------------------------------------------------------------------------------


 INCAR:
   ALGO = Conjugate
   KPAR = 2
   NCORE = 32
   ISMEAR = 0
   SIGMA = 0.01
   PREC = Accurate
   EDIFF = 1E-7
   ENCUT = 1000
   ISIF = 0
   METAGGA = SCAN
   LASPH = .TRUE.
   SYMPREC = 1E-7

 POTCAR:    PAW_PBE C_h 06Feb2004                 
 POTCAR:    PAW_PBE O_h 06Feb2004                 
 -----------------------------------------------------------------------------
|                                                                             |
|           W    W    AA    RRRRR   N    N  II  N    N   GGGG   !!!           |
|           W    W   A  A   R    R  NN   N  II  NN   N  G    G  !!!           |
|           W    W  A    A  R    R  N N  N  II  N N  N  G       !!!           |
|           W WW W  AAAAAA  RRRRR   N  N N  II  N  N N  G  GGG   !            |
|           WW  WW  A    A  R   R   N   NN  II  N   NN  G    G                |
|           W    W  A    A  R    R  N    N  II  N    N   GGGG   !!!           |
|                                                                             |
|     The value NCORE = 32 specified in the INCAR file was overwritten,       |
|     because it was not compatible with the 56 processes available:          |
|     NCORE = 1                                                               |
|     was used instead, please check that this makes sense for your           |
|     machine.                                                                |
|                                                                             |
 -----------------------------------------------------------------------------

 -----------------------------------------------------------------------------
|                                                                             |
|           W    W    AA    RRRRR   N    N  II  N    N   GGGG   !!!           |
|           W    W   A  A   R    R  NN   N  II  NN   N  G    G  !!!           |
|           W    W  A    A  R    R  N N  N  II  N N  N  G       !!!           |
|           W WW W  AAAAAA  RRRRR   N  N N  II  N  N N  G  GGG   !            |
|           WW  WW  A    A  R   R   N   NN  II  N   NN  G    G                |
|           W    W  A    A  R    R  N    N  II  N    N   GGGG   !!!           |
|                                                                             |
|     For optimal performance we recommend to set                             |
|       NCORE = 2 up to number-of-cores-per-socket                            |
|     NCORE specifies how many cores store one orbital (NPAR=cpu/NCORE).      |
|     This setting can greatly improve the performance of VASP for DFT.       |
|     The default, NCORE=1 might be grossly inefficient on modern             |
|     multi-core architectures or massively parallel machines. Do your        |
|     own testing! More info at https://www.vasp.at/wiki/index.php/NCORE      |
|     Unfortunately you need to use the default for GW and RPA                |
|     calculations (for HF NCORE is supported but not extensively tested      |
|     yet).                                                                   |
|                                                                             |
 -----------------------------------------------------------------------------

 POTCAR:    PAW_PBE C_h 06Feb2004                 
   VRHFIN =C: s2p2                                                                                  
   LEXCH  = PE                                                                                      
   EATOM  =   147.1560 eV,   10.8157 Ry                                                             
                                                                                                    
   TITEL  = PAW_PBE C_h 06Feb2004                                                                   
   LULTRA =        F    use ultrasoft PP ?                                                          
   IUNSCR =        1    unscreen: 0-lin 1-nonlin 2-no                                               
   RPACOR =    0.800    partial core radius                                                         
   POMASS =   12.011; ZVAL   =    4.000    mass and valenz                                          
   RCORE  =    1.100    outmost cutoff radius                                                       
   RWIGS  =    1.630; RWIGS  =    0.863    wigner-seitz radius (au A)                               
   ENMAX  =  700.000; ENMIN  =  500.000 eV                                                          
   ICORE  =        2    local potential                                                             
   LCOR   =        T    correct aug charges                                                         
   LPAW   =        T    paw PP                                                                      
   EAUG   =  946.768                                                                                
   DEXC   =    0.000                                                                                
   RMAX   =    1.128    core radius for proj-oper                                                   
   RAUG   =    1.300    factor for augmentation sphere                                              
   RDEP   =    1.162    radius for radial grids                                                     
   RDEPT  =    1.088    core radius for aug-charge                                                  
                                                                                                    
   Atomic configuration                                                                             
    4 entries                                                                                       
     n  l   j            E        occ.                                                              
     1  0  0.50      -273.3789   2.0000                                                             
     2  0  0.50       -13.7508   2.0000                                                             
     2  1  0.50        -5.2854   2.0000                                                             
     3  2  1.50        -5.4423   0.0000                                                             
   Description                                                                                      
     l       E           TYP  RCUT    TYP  RCUT                                                     
     0    -13.7508458     23  1.100                                                                 
     0     -8.2022199     23  1.100                                                                 
     1     -5.2854383     23  1.100                                                                 
     1      1.1560700     23  1.100                                                                 
     2     -5.4423304      7  1.100                                                                 
  local pseudopotential read in
  partial core-charges read in
  partial kinetic energy density read in
  atomic valenz-charges read in
  non local Contribution for L=           0  read in
    real space projection operators read in
  non local Contribution for L=           0  read in
    real space projection operators read in
  non local Contribution for L=           1  read in
    real space projection operators read in
  non local Contribution for L=           1  read in
    real space projection operators read in
    PAW grid and wavefunctions read in
 
   number of l-projection  operators is LMAX  =           4
   number of lm-projection operators is LMMAX =           8
 
 POTCAR:    PAW_PBE O_h 06Feb2004                 
   VRHFIN =O: s2p4                                                                                  
   LEXCH  = PE                                                                                      
   EATOM  =   432.3788 eV,   31.7789 Ry                                                             
                                                                                                    
   TITEL  = PAW_PBE O_h 06Feb2004                                                                   
   LULTRA =        F    use ultrasoft PP ?                                                          
   IUNSCR =        1    unscreen: 0-lin 1-nonlin 2-no                                               
   RPACOR =    0.800    partial core radius                                                         
   POMASS =   16.000; ZVAL   =    6.000    mass and valenz                                          
   RCORE  =    1.100    outmost cutoff radius                                                       
   RWIGS  =    1.400; RWIGS  =    0.741    wigner-seitz radius (au A)                               
   ENMAX  =  700.000; ENMIN  =  500.000 eV                                                          
   ICORE  =        2    local potential                                                             
   LCOR   =        T    correct aug charges                                                         
   LPAW   =        T    paw PP                                                                      
   EAUG   =  888.804                                                                                
   DEXC   =    0.000                                                                                
   RMAX   =    1.128    core radius for proj-oper                                                   
   RAUG   =    1.300    factor for augmentation sphere                                              
   RDEP   =    1.125    radius for radial grids                                                     
   RDEPT  =    1.088    core radius for aug-charge                                                  
                                                                                                    
   Atomic configuration                                                                             
    4 entries                                                                                       
     n  l   j            E        occ.                                                              
     1  0  0.50      -514.6923   2.0000                                                             
     2  0  0.50       -23.9615   2.0000                                                             
     2  1  0.50        -9.0305   4.0000                                                             
     3  2  1.50        -9.5241   0.0000                                                             
   Description                                                                                      
     l       E           TYP  RCUT    TYP  RCUT                                                     
     0    -23.9615319     23  1.100                                                                 
     0    -25.3221145     23  1.100                                                                 
     1     -9.0304911     23  1.100                                                                 
     1     -5.4802209     23  1.100                                                                 
     2     -9.5240782      7  1.100                                                                 
  local pseudopotential read in
  partial core-charges read in
  partial kinetic energy density read in
  atomic valenz-charges read in
  non local Contribution for L=           0  read in
    real space projection operators read in
  non local Contribution for L=           0  read in
    real space projection operators read in
  non local Contribution for L=           1  read in
    real space projection operators read in
  non local Contribution for L=           1  read in
    real space projection operators read in
    PAW grid and wavefunctions read in
 
   number of l-projection  operators is LMAX  =           4
   number of lm-projection operators is LMMAX =           8
 
 -----------------------------------------------------------------------------
|                                                                             |
|               ----> ADVICE to this user running VASP <----                  |
|                                                                             |
|     You have a (more or less) 'large supercell' and for larger cells it     |
|     might be more efficient to use real-space projection operators.         |
|     Therefore, try LREAL= Auto in the INCAR file.                           |
|     Mind: For very accurate calculation, you might also keep the            |
|     reciprocal projection scheme (i.e. LREAL=.FALSE.).                      |
|                                                                             |
 -----------------------------------------------------------------------------

  PAW_PBE C_h 06Feb2004                 :
 energy of atom  1       EATOM= -147.1560
 kinetic energy error for atom=    0.0031 (will be added to EATOM!!)
  PAW_PBE O_h 06Feb2004                 :
 energy of atom  2       EATOM= -432.3788
 kinetic energy error for atom=    0.0171 (will be added to EATOM!!)
 
 
 POSCAR:  C  O
  positions in cartesian coordinates
  No initial velocities read in

 METAGGA = SCAN     LMAXTAU =  6    LMIXTAU =  F

 exchange correlation table for  LEXCH =        8
   RHO(1)=    0.500       N(1)  =     2000
   RHO(2)=  100.500       N(2)  =     4000
 


--------------------------------------------------------------------------------------------------------


 ion  position               nearest neighbor table
   1  0.972  0.000  0.001-  50 1.42   2 1.42  42 1.42
   2  0.039  0.134  0.000-   5 1.42   7 1.42   1 1.42
   3  0.172  0.000  0.000-  42 1.42  44 1.42   4 1.42
   4  0.239  0.134  0.000-   7 1.42   3 1.42  23 1.42
   5  0.972  0.200  0.000-   6 1.42   2 1.42  34 1.42
   6  0.039  0.334  0.000-   5 1.42  21 1.42  11 1.42
   7  0.172  0.200  0.000-   8 1.42   2 1.42   4 1.42
   8  0.239  0.334  0.000-  13 1.42   7 1.42  21 1.42
   9  0.372  0.000  0.000-  10 1.42  44 1.42  46 1.42
  10  0.439  0.134  0.000-  27 1.42   9 1.42  23 1.42
  11  0.972  0.400  0.001-  12 1.42  36 1.42   6 1.42
  12  0.039  0.534  0.001-  25 1.42  11 1.42  17 1.42
  13  0.372  0.400  0.000-   8 1.42  14 1.42  24 1.42
  14  0.439  0.534  0.000-  13 1.42  29 1.42  19 1.42
  15  0.572  0.000  0.001-  46 1.42  16 1.42  48 1.42
  16  0.639  0.134  0.001-  15 1.42  35 1.42  27 1.42
  17  0.972  0.600  0.001-  38 1.42  18 1.42  12 1.42
  18  0.039  0.734  0.001-  43 1.42  41 1.42  17 1.42
  19  0.572  0.600  0.000-  14 1.42  20 1.42  32 1.42
  20  0.639  0.734  0.001-  49 1.42  19 1.42  47 1.42
  21  0.172  0.400  0.000-  22 1.42   8 1.42   6 1.42
  22  0.239  0.534  0.000-  21 1.42  29 1.42  25 1.42
  23  0.372  0.200  0.000-  10 1.42   4 1.42  24 1.42
  24  0.439  0.334  0.000-  13 1.42  31 1.42  23 1.42
  25  0.172  0.600  0.001-  26 1.42  12 1.42  22 1.42
  26  0.239  0.734  0.001-  25 1.42  45 1.42  43 1.42
  27  0.572  0.200  0.000-  10 1.42  28 1.42  16 1.42
  28  0.639  0.334  0.000-  27 1.42  37 1.42  31 1.42
  29  0.372  0.600  0.000-  22 1.42  14 1.42  30 1.42
  30  0.439  0.734  0.000-  47 1.42  29 1.42  45 1.42
  31  0.572  0.400  0.000-  32 1.42  28 1.42  24 1.42
  32  0.639  0.534  0.000-  31 1.42  39 1.42  19 1.42
  33  0.772  0.000  0.001-  34 1.42  48 1.42  50 1.42
  34  0.839  0.134  0.001-  33 1.42   5 1.42  35 1.42
  35  0.772  0.200  0.001-  36 1.42  16 1.42  34 1.42
  36  0.839  0.334  0.001-  35 1.42  11 1.42  37 1.42
  37  0.772  0.400  0.001-  28 1.42  38 1.42  36 1.42
  38  0.839  0.534  0.001-  17 1.42  37 1.42  39 1.42
  39  0.772  0.600  0.001-  40 1.42  38 1.42  32 1.42
  40  0.839  0.734  0.001-  39 1.42  49 1.42  41 1.42
  41  0.972  0.800  0.001-  18 1.42  42 1.42  40 1.42
  42  0.039  0.934  0.001-   3 1.42  41 1.42   1 1.42
  43  0.172  0.800  0.001-  18 1.42  44 1.42  26 1.42
  44  0.239  0.934  0.001-   9 1.42  43 1.42   3 1.42
  45  0.372  0.800  0.001-  26 1.42  46 1.42  30 1.42
  46  0.439  0.934  0.001-  15 1.42  45 1.42   9 1.42
  47  0.572  0.800  0.001-  30 1.42  48 1.42  20 1.42
  48  0.639  0.934  0.001-  47 1.42  33 1.42  15 1.42
  49  0.772  0.800  0.001-  50 1.42  20 1.42  40 1.42
  50  0.839  0.934  0.001-  49 1.42   1 1.42  33 1.42
  51  0.373  0.251  0.252-  52 1.18  53 1.18
  52  0.421  0.189  0.255-  51 1.18
  53  0.325  0.313  0.250-  51 1.18
 
  LATTYP: Found a hexagonal cell.
 ALAT       =    12.3250000000
 C/A-ratio  =     2.0283975659
  
  Lattice vectors:
  
 A1 = (  12.3250000000,   0.0000000000,   0.0000000000)
 A2 = (  -6.1625000000,  10.6737631016,   0.0000000000)
 A3 = (   0.0000000000,   0.0000000000,  25.0000000000)


Analysis of symmetry for initial positions (statically):
=====================================================================
 Subroutine PRICEL returns:
 Original cell was already a primitive cell.
 

 Routine SETGRP: Setting up the symmetry group for a 
 hexagonal supercell.


 Subroutine GETGRP returns: Found  1 space group operations
 (whereof  1 operations were pure point group operations)
 out of a pool of 24 trial point group operations.


The static configuration has the point symmetry C_1 .


Analysis of symmetry for dynamics (positions and initial velocities):
=====================================================================
 Subroutine PRICEL returns:
 Original cell was already a primitive cell.
 

 Routine SETGRP: Setting up the symmetry group for a 
 hexagonal supercell.


 Subroutine GETGRP returns: Found  1 space group operations
 (whereof  1 operations were pure point group operations)
 out of a pool of 24 trial point group operations.


The dynamic configuration has the point symmetry C_1 .


 Subroutine INISYM returns: Found  1 space group operations
 (whereof  1 operations are pure point group operations),
 and found     1 'primitive' translations


----------------------------------------------------------------------------------------

                                     Primitive cell                                     

  volume of cell :    3288.8533

  direct lattice vectors                    reciprocal lattice vectors
    12.325000000  0.000000000  0.000000000     0.081135903  0.046843835  0.000000000
    -6.162500000 10.673763102  0.000000000     0.000000000  0.093687670  0.000000000
     0.000000000  0.000000000 25.000000000     0.000000000  0.000000000  0.040000000

  length of vectors
    12.325000000 12.325000000 25.000000000     0.093687670  0.093687670  0.040000000

  position of ions in fractional coordinates (direct lattice)
     0.972450841  0.000320818  0.000566711
     0.039118382  0.133659505  0.000440173
     0.172443627  0.000295449  0.000499628
     0.239096278  0.133647917  0.000256468
     0.972452058  0.200322012  0.000485219
     0.039128360  0.333643771  0.000444150
     0.172451764  0.200354552  0.000219167
     0.239124359  0.333665720  0.000072260
     0.372465565  0.000324403  0.000453913
     0.439137473  0.133619939  0.000258338
     0.972449824  0.400309362  0.000547611
     0.039124981  0.533636789  0.000573410
     0.372416176  0.400329481  0.000000000
     0.439099602  0.533638981  0.000232414
     0.572443676  0.000312125  0.000559580
     0.639110207  0.133631751  0.000547275
     0.972452703  0.600305653  0.000640289
     0.039124495  0.733640359  0.000654513
     0.572433471  0.600306242  0.000402895
     0.639111888  0.733641879  0.000527905
     0.172454630  0.400318228  0.000289045
     0.239120185  0.533636548  0.000378509
     0.372459750  0.200295993  0.000088997
     0.439107096  0.333673419  0.000055762
     0.172452155  0.600311506  0.000524340
     0.239123371  0.733638574  0.000575129
     0.572431082  0.200289171  0.000413296
     0.639112773  0.333618630  0.000462376
     0.372439808  0.600308022  0.000362844
     0.439116090  0.733637858  0.000494190
     0.572469358  0.400320504  0.000339918
     0.639119408  0.533650873  0.000459610
     0.772445723  0.000315427  0.000596161
     0.839116277  0.133640203  0.000575306
     0.772440513  0.200307432  0.000581033
     0.839120241  0.333635728  0.000585467
     0.772446320  0.400298367  0.000582978
     0.839118980  0.533633964  0.000621100
     0.772456143  0.600308173  0.000595712
     0.839115033  0.733643180  0.000631512
     0.972455313  0.800305582  0.000652233
     0.039114714  0.933643289  0.000598051
     0.172457971  0.800312211  0.000623372
     0.239134551  0.933647193  0.000544850
     0.372451396  0.800316674  0.000551399
     0.439124489  0.933644769  0.000541430
     0.572441101  0.800310054  0.000534535
     0.639115067  0.933638985  0.000587644
     0.772445098  0.800313187  0.000602062
     0.839116614  0.933644338  0.000606830
     0.373021009  0.251226878  0.251984210
     0.420879805  0.189313152  0.254561084
     0.325156981  0.313167186  0.249606015

  ion indices of the primitive-cell ions
   primitive index   ion index
                 1           1
                 2           2
                 3           3
                 4           4
                 5           5
                 6           6
                 7           7
                 8           8
                 9           9
                10          10
                11          11
                12          12
                13          13
                14          14
                15          15
                16          16
                17          17
                18          18
                19          19
                20          20
                21          21
                22          22
                23          23
                24          24
                25          25
                26          26
                27          27
                28          28
                29          29
                30          30
                31          31
                32          32
                33          33
                34          34
                35          35
                36          36
                37          37
                38          38
                39          39
                40          40
                41          41
                42          42
                43          43
                44          44
                45          45
                46          46
                47          47
                48          48
                49          49
                50          50
                51          51
                52          52
                53          53

----------------------------------------------------------------------------------------

 
 
 KPOINTS: auto                                    

Automatic generation of k-mesh.
 Grid dimensions read from file:
 generate k-points for:    1    1    1

 Generating k-lattice:

  Cartesian coordinates                     Fractional coordinates (reciprocal lattice)
     0.081135903  0.046843835  0.000000000     1.000000000 -0.000000000  0.000000000
     0.000000000  0.093687670  0.000000000     0.000000000  1.000000000  0.000000000
     0.000000000  0.000000000  0.040000000     0.000000000  0.000000000  1.000000000

  Length of vectors
     0.093687670  0.093687670  0.040000000

  Shift w.r.t. Gamma in fractional coordinates (k-lattice)
     0.000000000  0.000000000  0.000000000

 
 Subroutine IBZKPT returns following result:
 ===========================================
 
 Found      1 irreducible k-points:
 
 Following reciprocal coordinates:
            Coordinates               Weight
  0.000000  0.000000  0.000000      1.000000
 
 Following cartesian coordinates:
            Coordinates               Weight
  0.000000  0.000000  0.000000      1.000000
 


--------------------------------------------------------------------------------------------------------




 Dimension of arrays:
   k-points           NKPTS =      1   k-points in BZ     NKDIM =      1   number of bands    NBANDS=    168
   number of dos      NEDOS =    301   number of ions     NIONS =     53
   non local maximal  LDIM  =      4   non local SUM 2l+1 LMDIM =      8
   total plane-waves  NPLWV = ******
   max r-space proj   IRMAX =      1   max aug-charges    IRDMAX=  10008
   dimension x,y,z NGX =   128 NGY =  128 NGZ =  270
   dimension x,y,z NGXF=   256 NGYF=  256 NGZF=  540
   support grid    NGXF=   256 NGYF=  256 NGZF=  540
   ions per type =              51   2
   NGX,Y,Z   is equivalent  to a cutoff of  17.27, 17.27, 17.95 a.u.
   NGXF,Y,Z  is equivalent  to a cutoff of  34.53, 34.53, 35.91 a.u.

 SYSTEM =  unknown system                          
 POSCAR =   C  O                                   

 Startparameter for this run:
   NWRITE =      2    write-flag & timer
   PREC   = accura    normal or accurate (medium, high low for compatibility)
   ISTART =      0    job   : 0-new  1-cont  2-samecut
   ICHARG =      2    charge: 1-file 2-atom 10-const
   ISPIN  =      1    spin polarized calculation?
   LNONCOLLINEAR =      F non collinear calculations
   LSORBIT =      F    spin-orbit coupling
   INIWAV =      1    electr: 0-lowe 1-rand  2-diag
   LASPH  =      T    aspherical Exc in radial PAW
 Electronic Relaxation 1
   ENCUT  = 1000.0 eV  73.50 Ry    8.57 a.u.  31.78 31.78 64.46*2*pi/ulx,y,z
   ENINI  = 1000.0     initial cutoff
   ENAUG  =  946.8 eV  augmentation charge cutoff
   NELM   =     60;   NELMIN=  2; NELMDL= -5     # of ELM steps 
   EDIFF  = 0.1E-06   stopping-criterion for ELM
   LREAL  =      F    real-space projection
   NLSPLINE    = F    spline interpolate recip. space projectors
   LCOMPAT=      F    compatible to vasp.4.4
   GGA_COMPAT  = T    GGA compatible to vasp.4.4-vasp.4.6
   LMAXPAW     = -100 max onsite density
   LMAXMIX     =    2 max onsite mixed and CHGCAR
   VOSKOWN=      0    Vosko Wilk Nusair interpolation
   ROPT   =    0.00000   0.00000
 Ionic relaxation
   EDIFFG = 0.1E-05   stopping-criterion for IOM
   NSW    =      0    number of steps for IOM
   NBLOCK =      1;   KBLOCK =      1    inner block; outer block 
   IBRION =     -1    ionic relax: 0-MD 1-quasi-New 2-CG
   NFREE  =      0    steps in history (QN), initial steepest desc. (CG)
   ISIF   =      0    stress and relaxation
   IWAVPR =     10    prediction:  0-non 1-charg 2-wave 3-comb
   ISYM   =      2    0-nonsym 1-usesym 2-fastsym
   LCORR  =      T    Harris-Foulkes like correction to forces

   POTIM  = 0.5000    time-step for ionic-motion
   TEIN   =    0.0    initial temperature
   TEBEG  =    0.0;   TEEND  =   0.0 temperature during run
   SMASS  =  -3.00    Nose mass-parameter (am)
   estimated Nose-frequenzy (Omega)   =  0.10E-29 period in steps = 0.13E+47 mass=  -0.347E-26a.u.
   SCALEE = 1.0000    scale energy and forces
   NPACO  =    256;   APACO  = 16.0  distance and # of slots for P.C.
   PSTRESS=    0.0 pullay stress

  Mass of Ions in am
   POMASS =  12.01 16.00
  Ionic Valenz
   ZVAL   =   4.00  6.00
  Atomic Wigner-Seitz radii
   RWIGS  =  -1.00 -1.00
  virtual crystal weights 
   VCA    =   1.00  1.00
   NELECT =     216.0000    total number of electrons
   NUPDOWN=      -1.0000    fix difference up-down

 DOS related values:
   EMIN   =  10.00;   EMAX   =-10.00  energy-range for DOS
   EFERMI =   0.00
   ISMEAR =     0;   SIGMA  =   0.01  broadening in eV -4-tet -1-fermi 0-gaus

 Electronic relaxation 2 (details)
   IALGO  =     58    algorithm
   LDIAG  =      T    sub-space diagonalisation (order eigenvalues)
   LSUBROT=      F    optimize rotation matrix (better conditioning)
   TURBO    =      0    0=normal 1=particle mesh
   IRESTART =      0    0=no restart 2=restart with 2 vectors
   NREBOOT  =      0    no. of reboots
   NMIN     =      0    reboot dimension
   EREF     =   0.00    reference energy to select bands
   IMIX   =      4    mixing-type and parameters
     AMIX     =   0.40;   BMIX     =  1.00
     AMIX_MAG =   1.60;   BMIX_MAG =  1.00
     AMIN     =   0.10
     WC   =   100.;   INIMIX=   1;  MIXPRE=   1;  MAXMIX= -45

 Intra band minimization:
   WEIMIN = 0.0000     energy-eigenvalue tresh-hold
   EBREAK =  0.15E-09  absolut break condition
   DEPER  =   0.30     relativ break condition  

   TIME   =   0.40     timestep for ELM

  volume/ion in A,a.u.               =      62.05       418.76
  Fermi-wavevector in a.u.,A,eV,Ry     =   0.660508  1.248179  5.935820  0.436270
  Thomas-Fermi vector in A             =   1.732977
 
 Write flags
   LWAVE        =      T    write WAVECAR
   LDOWNSAMPLE  =      F    k-point downsampling of WAVECAR
   LCHARG       =      T    write CHGCAR
   LVTOT        =      F    write LOCPOT, total local potential
   LVHAR        =      F    write LOCPOT, Hartree potential only
   LELF         =      F    write electronic localiz. function (ELF)
   LORBIT       =      0    0 simple, 1 ext, 2 COOP (PROOUT), +10 PAW based schemes


 Dipole corrections
   LMONO  =      F    monopole corrections only (constant potential shift)
   LDIPOL =      F    correct potential (dipole corrections)
   IDIPOL =      0    1-x, 2-y, 3-z, 4-all directions 
   EPSILON=  1.0000000 bulk dielectric constant

 Exchange correlation treatment:
   GGA     =    --    GGA type
   LEXCH   =     8    internal setting for exchange type
   VOSKOWN=      0    Vosko Wilk Nusair interpolation
   LHFCALC =     F    Hartree Fock is set to
   LHFONE  =     F    Hartree Fock one center treatment
   AEXX    =    0.0000 exact exchange contribution

 Linear response parameters
   LEPSILON=     F    determine dielectric tensor
   LRPA    =     F    only Hartree local field effects (RPA)
   LNABLA  =     F    use nabla operator in PAW spheres
   LVEL    =     F    velocity operator in full k-point grid
   LINTERFAST=   F  fast interpolation
   KINTER  =     0    interpolate to denser k-point grid
   CSHIFT  =0.1000    complex shift for real part using Kramers Kronig
   OMEGAMAX=  -1.0    maximum frequency
   DEG_THRESHOLD= 0.2000000E-02 threshold for treating states as degnerate
   RTIME   =   -0.100 relaxation time in fs
  (WPLASMAI=    0.000 imaginary part of plasma frequency in eV, 0.658/RTIME)
   DFIELD  = 0.0000000 0.0000000 0.0000000 field for delta impulse in time
 
 Orbital magnetization related:
   ORBITALMAG=     F  switch on orbital magnetization
   LCHIMAG   =     F  perturbation theory with respect to B field
   DQ        =  0.001000  dq finite difference perturbation B field
   LLRAUG    =     F  two centre corrections for induced B field



--------------------------------------------------------------------------------------------------------


 Static calculation
 charge density and potential will be updated during run
 non-spin polarized calculation
 Conjugate gradient for all bands (Freysoldt, et al. PRB 79, 241103 (2009))
 preconditioned conjugated gradient                                        
 perform sub-space diagonalisation
    before iterative eigenvector-optimisation
 modified Broyden-mixing scheme, WC =      100.0
 initial mixing is a Kerker type mixing with AMIX =  0.4000 and BMIX =      1.0000
 Hartree-type preconditioning will be used
 using additional bands           60
 reciprocal scheme for non local part
 use partial core corrections
 no Harris-corrections to forces 
 use gradient corrections 
 use of overlap-Matrix (Vanderbilt PP)
 Gauss-broadening in eV      SIGMA  =   0.01


--------------------------------------------------------------------------------------------------------


  energy-cutoff  :     1000.00
  volume of cell :     3288.85
      direct lattice vectors                 reciprocal lattice vectors
    12.325000000  0.000000000  0.000000000     0.081135903  0.046843835  0.000000000
    -6.162500000 10.673763102  0.000000000     0.000000000  0.093687670  0.000000000
     0.000000000  0.000000000 25.000000000     0.000000000  0.000000000  0.040000000

  length of vectors
    12.325000000 12.325000000 25.000000000     0.093687670  0.093687670  0.040000000


 
 k-points in units of 2pi/SCALE and weight: auto                                    
   0.00000000  0.00000000  0.00000000       1.000
 
 k-points in reciprocal lattice and weights: auto                                    
   0.00000000  0.00000000  0.00000000       1.000
 
 position of ions in fractional coordinates (direct lattice) 
   0.97245084  0.00032082  0.00056671
   0.03911838  0.13365950  0.00044017
   0.17244363  0.00029545  0.00049963
   0.23909628  0.13364792  0.00025647
   0.97245206  0.20032201  0.00048522
   0.03912836  0.33364377  0.00044415
   0.17245176  0.20035455  0.00021917
   0.23912436  0.33366572  0.00007226
   0.37246557  0.00032440  0.00045391
   0.43913747  0.13361994  0.00025834
   0.97244982  0.40030936  0.00054761
   0.03912498  0.53363679  0.00057341
   0.37241618  0.40032948  0.00000000
   0.43909960  0.53363898  0.00023241
   0.57244368  0.00031213  0.00055958
   0.63911021  0.13363175  0.00054727
   0.97245270  0.60030565  0.00064029
   0.03912449  0.73364036  0.00065451
   0.57243347  0.60030624  0.00040289
   0.63911189  0.73364188  0.00052791
   0.17245463  0.40031823  0.00028904
   0.23912018  0.53363655  0.00037851
   0.37245975  0.20029599  0.00008900
   0.43910710  0.33367342  0.00005576
   0.17245216  0.60031151  0.00052434
   0.23912337  0.73363857  0.00057513
   0.57243108  0.20028917  0.00041330
   0.63911277  0.33361863  0.00046238
   0.37243981  0.60030802  0.00036284
   0.43911609  0.73363786  0.00049419
   0.57246936  0.40032050  0.00033992
   0.63911941  0.53365087  0.00045961
   0.77244572  0.00031543  0.00059616
   0.83911628  0.13364020  0.00057531
   0.77244051  0.20030743  0.00058103
   0.83912024  0.33363573  0.00058547
   0.77244632  0.40029837  0.00058298
   0.83911898  0.53363396  0.00062110
   0.77245614  0.60030817  0.00059571
   0.83911503  0.73364318  0.00063151
   0.97245531  0.80030558  0.00065223
   0.03911471  0.93364329  0.00059805
   0.17245797  0.80031221  0.00062337
   0.23913455  0.93364719  0.00054485
   0.37245140  0.80031667  0.00055140
   0.43912449  0.93364477  0.00054143
   0.57244110  0.80031005  0.00053453
   0.63911507  0.93363899  0.00058764
   0.77244510  0.80031319  0.00060206
   0.83911661  0.93364434  0.00060683
   0.37302101  0.25122688  0.25198421
   0.42087980  0.18931315  0.25456108
   0.32515698  0.31316719  0.24960602
 
 position of ions in cartesian coordinates  (Angst):
  11.98347958  0.00342433  0.01416777
  -0.34154264  1.42664989  0.01100432
   2.12354700  0.00315355  0.01249070
   2.12325634  1.42652621  0.00641170
  10.75098721  2.13818970  0.01213047
  -1.57382270  3.56123457  0.01110375
   0.89078307  2.13853702  0.00547917
   0.89099273  3.56146885  0.00180651
   4.58863896  0.00346260  0.01134782
   4.58893648  1.42622757  0.00645846
   9.51853763  4.27280730  0.01369027
  -2.80632132  5.69591267  0.01433526
   2.12299894  4.27302204  0.00000000
   2.12335237  5.69593607  0.00581036
   7.05344483  0.00333155  0.01398950
   7.05352764  1.42635365  0.01368187
   8.28609598  6.40752033  0.01600723
  -4.03884931  7.83070339  0.01636283
   3.35585531  6.40752662  0.01007237
   3.35598594  7.83071962  0.01319763
  -0.34145776  4.27290193  0.00722612
  -0.34137895  5.69591010  0.00946273
   3.35624236  2.13791198  0.00222492
   3.35573251  3.56155103  0.00139405
  -1.57394684  6.40758280  0.01310850
  -1.57385216  7.83068434  0.01437823
   5.82093107  2.13783916  0.01033241
   5.82114012  3.56096622  0.01155939
   0.89092245  6.40754561  0.00907111
   0.89106251  7.83067670  0.01235474
   4.58870974  4.27292622  0.00849795
   4.58852320  5.69606300  0.01149026
   9.51844972  0.00336679  0.01490402
   9.51855036  1.42644387  0.01438264
   8.28593477  2.13803408  0.01452582
   8.28612680  3.56114872  0.01463668
   7.05356221  4.27268994  0.01457444
   7.05362213  5.69588251  0.01552751
   5.82112285  6.40754723  0.01489279
   5.82101669  7.83073350  0.01578780
   7.05362858  8.54227219  0.01630582
  -5.27148792  9.96548729  0.01495127
  -2.80637951  8.54234295  0.01558431
  -2.80626749  9.96552896  0.01362126
  -0.34148805  8.54239058  0.01378498
  -0.34137657  9.96550309  0.01353576
   2.12342586  8.54231992  0.01336337
   2.12354296  9.96544135  0.01469111
   4.58845581  8.54235337  0.01505154
   4.58852904  9.96549848  0.01517076
   3.04929830  2.68153618  6.29960525
   4.02070129  2.02068374  6.36402711
   2.07766701  3.34267235  6.24015038
 


--------------------------------------------------------------------------------------------------------


 k-point   1 :   0.0000 0.0000 0.0000  plane waves:  236157

 maximum and minimum number of plane-waves per node :    236157   236157

 maximum number of plane-waves:    236157
 maximum index in each direction: 
   IXMAX=   31   IYMAX=   31   IZMAX=   64
   IXMIN=  -31   IYMIN=  -31   IZMIN=  -64


 serial   3D FFT for wavefunctions
 parallel 3D FFT for charge:
    minimum data exchange during FFTs selected (reduces bandwidth)


 total amount of memory used by VASP MPI-rank0   698619. kBytes
=======================================================================

   base      :      30000. kBytes
   nonl-proj :     230539. kBytes
   fftplans  :      40716. kBytes
   grid      :     363125. kBytes
   one-center:        162. kBytes
   wavefun   :      34077. kBytes
 
     INWAV:  cpu time    0.0000: real time    0.0000
 Broyden mixing: mesh for mixing (old mesh)
   NGX = 63   NGY = 63   NGZ =129
  (NGX  =256   NGY  =256   NGZ  =540)
  gives a total of 512001 points

 initial charge density was supplied:
 charge density of overlapping atoms calculated
 number of electron     216.0000000 magnetization 
 keeping initial charge density in first step


--------------------------------------------------------------------------------------------------------


 Maximum index for augmentation-charges          471 (set IRDMAX)


--------------------------------------------------------------------------------------------------------


 First call to EWALD:  gamma=   0.119
 Maximum number of real-space cells 4x 4x 2
 Maximum number of reciprocal cells 2x 2x 4

    FEWALD:  cpu time    0.0025: real time    0.0025


--------------------------------------- Iteration      1(   1)  ---------------------------------------


    POTLOK:  cpu time    1.9571: real time    1.9683
    SETDIJ:  cpu time    0.2543: real time    0.2553
    TRIAL :  cpu time   27.9957: real time   28.2145
    CORREC:  cpu time    0.0007: real time    0.0009
    --------------------------------------------
      LOOP:  cpu time   30.2233: real time   30.4609

 eigenvalue-minimisations  :   336
 total energy-change (2. order) : 0.2534877E+04  (-0.1080404E+05)
 number of electron     216.0000000 magnetization 
 augmentation part      216.0000000 magnetization 

 Free energy of the ion-electron system (eV)
  ---------------------------------------------------
  alpha Z        PSCENC =        47.94900195
  Ewald energy   TEWEN  =     43223.40734049
  -Hartree energ DENC   =    -49292.59772567
  -exchange      EXHF   =         0.00000000
  -V(xc)+E(xc)   XCENC  =       602.79697898
  PAW double counting   =      6339.73130699    -6197.22120962
  entropy T*S    EENTRO =        -0.00131466
  eigenvalues    EBANDS =      -558.71101310
  atomic energy  EATOM  =      8369.52358910
  ---------------------------------------------------
  free energy    TOTEN  =      2534.87695446 eV

  energy without entropy =     2534.87826912  energy(sigma->0) =     2534.87761179


--------------------------------------------------------------------------------------------------------




--------------------------------------- Iteration      1(   2)  ---------------------------------------


    TRIAL :  cpu time   39.7393: real time   40.0646
    CORREC:  cpu time    0.0002: real time    0.0002
    --------------------------------------------
      LOOP:  cpu time   39.8259: real time   40.1524

 eigenvalue-minimisations  :   560
 total energy-change (2. order) :-0.2484648E+04  (-0.2329675E+04)
 number of electron     216.0000000 magnetization 
 augmentation part      216.0000000 magnetization 

 Free energy of the ion-electron system (eV)
  ---------------------------------------------------
  alpha Z        PSCENC =        47.94900195
  Ewald energy   TEWEN  =     43223.40734049
  -Hartree energ DENC   =    -49292.59772567
  -exchange      EXHF   =         0.00000000
  -V(xc)+E(xc)   XCENC  =       602.79697898
  PAW double counting   =      6339.73130699    -6197.22120962
  entropy T*S    EENTRO =        -0.00000000
  eigenvalues    EBANDS =     -3043.36038146
  atomic energy  EATOM  =      8369.52358910
  ---------------------------------------------------
  free energy    TOTEN  =        50.22890076 eV

  energy without entropy =       50.22890076  energy(sigma->0) =       50.22890076


--------------------------------------------------------------------------------------------------------




--------------------------------------- Iteration      1(   3)  ---------------------------------------


    TRIAL :  cpu time   30.8307: real time   31.1039
    CORREC:  cpu time    0.0001: real time    0.0001
    --------------------------------------------
      LOOP:  cpu time   30.9035: real time   31.1787

 eigenvalue-minimisations  :   392
 total energy-change (2. order) :-0.6359642E+03  (-0.6327183E+03)
 number of electron     216.0000000 magnetization 
 augmentation part      216.0000000 magnetization 

 Free energy of the ion-electron system (eV)
  ---------------------------------------------------
  alpha Z        PSCENC =        47.94900195
  Ewald energy   TEWEN  =     43223.40734049
  -Hartree energ DENC   =    -49292.59772567
  -exchange      EXHF   =         0.00000000
  -V(xc)+E(xc)   XCENC  =       602.79697898
  PAW double counting   =      6339.73130699    -6197.22120962
  entropy T*S    EENTRO =        -0.00000000
  eigenvalues    EBANDS =     -3679.32455278
  atomic energy  EATOM  =      8369.52358910
  ---------------------------------------------------
  free energy    TOTEN  =      -585.73527056 eV

  energy without entropy =     -585.73527056  energy(sigma->0) =     -585.73527056


--------------------------------------------------------------------------------------------------------




--------------------------------------- Iteration      1(   4)  ---------------------------------------


    TRIAL :  cpu time   33.7884: real time   34.0655
    CORREC:  cpu time    0.0001: real time    0.0001
    --------------------------------------------
      LOOP:  cpu time   33.8200: real time   34.1082

 eigenvalue-minimisations  :   448
 total energy-change (2. order) :-0.3376381E+02  (-0.3350409E+02)
 number of electron     216.0000000 magnetization 
 augmentation part      216.0000000 magnetization 

 Free energy of the ion-electron system (eV)
  ---------------------------------------------------
  alpha Z        PSCENC =        47.94900195
  Ewald energy   TEWEN  =     43223.40734049
  -Hartree energ DENC   =    -49292.59772567
  -exchange      EXHF   =         0.00000000
  -V(xc)+E(xc)   XCENC  =       602.79697898
  PAW double counting   =      6339.73130699    -6197.22120962
  entropy T*S    EENTRO =        -0.00000000
  eigenvalues    EBANDS =     -3713.08835795
  atomic energy  EATOM  =      8369.52358910
  ---------------------------------------------------
  free energy    TOTEN  =      -619.49907573 eV

  energy without entropy =     -619.49907573  energy(sigma->0) =     -619.49907573


--------------------------------------------------------------------------------------------------------




--------------------------------------- Iteration      1(   5)  ---------------------------------------


    TRIAL :  cpu time   33.7748: real time   34.0909
    CORREC:  cpu time    0.0001: real time    0.0001
    CHARGE:  cpu time    3.0040: real time    3.0286
    --------------------------------------------
      LOOP:  cpu time   36.8225: real time   37.1671

 eigenvalue-minimisations  :   448
 total energy-change (2. order) :-0.1148351E+01  (-0.1143900E+01)
 number of electron     216.0000000 magnetization 
 augmentation part       -0.4327404 magnetization 

 Free energy of the ion-electron system (eV)
  ---------------------------------------------------
  alpha Z        PSCENC =        47.94900195
  Ewald energy   TEWEN  =     43223.40734049
  -Hartree energ DENC   =    -49292.59772567
  -exchange      EXHF   =         0.00000000
  -V(xc)+E(xc)   XCENC  =       602.79697898
  PAW double counting   =      6339.73130699    -6197.22120962
  entropy T*S    EENTRO =        -0.00000000
  eigenvalues    EBANDS =     -3714.23670876
  atomic energy  EATOM  =      8369.52358910
  ---------------------------------------------------
  free energy    TOTEN  =      -620.64742654 eV

  energy without entropy =     -620.64742654  energy(sigma->0) =     -620.64742654


--------------------------------------------------------------------------------------------------------




--------------------------------------- Iteration      1(   6)  ---------------------------------------


    POTLOK:  cpu time    1.9190: real time    1.9344
    SETDIJ:  cpu time    0.2826: real time    0.2836
    TRIAL :  cpu time   20.0785: real time   20.2366
    CORREC:  cpu time    9.2498: real time    9.3127
    CHARGE:  cpu time    2.9700: real time    3.0097
    --------------------------------------------
      LOOP:  cpu time   34.5435: real time   34.8246

 eigenvalue-minimisations  :     0
 total energy-change (2. order) : 0.1041063E+03  (-0.1211562E+02)
 number of electron     216.0000000 magnetization 
 augmentation part       -0.4893400 magnetization 

 Free energy of the ion-electron system (eV)
  ---------------------------------------------------
  alpha Z        PSCENC =        47.94900195
  Ewald energy   TEWEN  =     43223.40734049
  -Hartree energ DENC   =    -50652.87373374
  -exchange      EXHF   =         0.00000000
  -V(xc)+E(xc)   XCENC  =       669.76036516
  PAW double counting   =    113945.04096967  -113808.26746357
  entropy T*S    EENTRO =        -0.00000000
  eigenvalues    EBANDS =     -2311.08123799
  atomic energy  EATOM  =      8369.52358910
  ---------------------------------------------------
  free energy    TOTEN  =      -516.54116893 eV

  energy without entropy =     -516.54116893  energy(sigma->0) =     -516.54116893


--------------------------------------------------------------------------------------------------------




--------------------------------------- Iteration      1(   7)  ---------------------------------------


    POTLOK:  cpu time    1.9081: real time    1.9191
    SETDIJ:  cpu time    0.2602: real time    0.2611
    TRIAL :  cpu time   19.9555: real time   20.1507
    CORREC:  cpu time    9.2427: real time    9.3175
    CHARGE:  cpu time    2.9880: real time    3.0093
    --------------------------------------------
      LOOP:  cpu time   34.4269: real time   34.7340

 eigenvalue-minimisations  :     0
 total energy-change (2. order) :-0.1213221E+02  (-0.1574620E+01)
 number of electron     216.0000000 magnetization 
 augmentation part       -0.5194225 magnetization 

 Free energy of the ion-electron system (eV)
  ---------------------------------------------------
  alpha Z        PSCENC =        47.94900195
  Ewald energy   TEWEN  =     43223.40734049
  -Hartree energ DENC   =    -50223.21228139
  -exchange      EXHF   =         0.00000000
  -V(xc)+E(xc)   XCENC  =       649.78720072
  PAW double counting   =    131950.72881215  -131811.20314385
  entropy T*S    EENTRO =        -0.00000000
  eigenvalues    EBANDS =     -2735.65389717
  atomic energy  EATOM  =      8369.52358910
  ---------------------------------------------------
  free energy    TOTEN  =      -528.67337799 eV

  energy without entropy =     -528.67337799  energy(sigma->0) =     -528.67337799


--------------------------------------------------------------------------------------------------------




--------------------------------------- Iteration      1(   8)  ---------------------------------------


    POTLOK:  cpu time    1.9122: real time    1.9225
    SETDIJ:  cpu time    0.2554: real time    0.2563
    TRIAL :  cpu time   19.9875: real time   20.1661
    CORREC:  cpu time    9.2519: real time    9.3242
    CHARGE:  cpu time    2.9831: real time    3.0069
    --------------------------------------------
      LOOP:  cpu time   34.4593: real time   34.7459

 eigenvalue-minimisations  :     0
 total energy-change (2. order) :-0.1574619E+01  (-0.5031447E+00)
 number of electron     216.0000000 magnetization 
 augmentation part       -0.5181678 magnetization 

 Free energy of the ion-electron system (eV)
  ---------------------------------------------------
  alpha Z        PSCENC =        47.94900195
  Ewald energy   TEWEN  =     43223.40734049
  -Hartree energ DENC   =    -50194.13715266
  -exchange      EXHF   =         0.00000000
  -V(xc)+E(xc)   XCENC  =       648.24910688
  PAW double counting   =    139968.16874189  -139828.16481707
  entropy T*S    EENTRO =        -0.00000000
  eigenvalues    EBANDS =     -2765.24380801
  atomic energy  EATOM  =      8369.52358910
  ---------------------------------------------------
  free energy    TOTEN  =      -530.24799742 eV

  energy without entropy =     -530.24799742  energy(sigma->0) =     -530.24799742


--------------------------------------------------------------------------------------------------------




--------------------------------------- Iteration      1(   9)  ---------------------------------------


    POTLOK:  cpu time    1.9144: real time    1.9251
    SETDIJ:  cpu time    0.2592: real time    0.2600
    TRIAL :  cpu time   19.9615: real time   20.1599
    CORREC:  cpu time    9.2724: real time    9.3353
    CHARGE:  cpu time    2.9974: real time    3.0186
    --------------------------------------------
      LOOP:  cpu time   34.4978: real time   34.7942

 eigenvalue-minimisations  :     0
 total energy-change (2. order) :-0.5029613E+00  (-0.1914197E+00)
 number of electron     216.0000000 magnetization 
 augmentation part       -0.5136244 magnetization 

 Free energy of the ion-electron system (eV)
  ---------------------------------------------------
  alpha Z        PSCENC =        47.94900195
  Ewald energy   TEWEN  =     43223.40734049
  -Hartree energ DENC   =    -50202.97087434
  -exchange      EXHF   =         0.00000000
  -V(xc)+E(xc)   XCENC  =       648.03856022
  PAW double counting   =    146129.65434654  -145989.45657666
  entropy T*S    EENTRO =        -0.00000000
  eigenvalues    EBANDS =     -2756.89634601
  atomic energy  EATOM  =      8369.52358910
  ---------------------------------------------------
  free energy    TOTEN  =      -530.75095870 eV

  energy without entropy =     -530.75095870  energy(sigma->0) =     -530.75095870


--------------------------------------------------------------------------------------------------------




--------------------------------------- Iteration      1(  10)  ---------------------------------------


    POTLOK:  cpu time    1.9214: real time    1.9339
    SETDIJ:  cpu time    0.2554: real time    0.2563
    TRIAL :  cpu time   19.9815: real time   20.1612
    CORREC:  cpu time    9.2426: real time    9.3105
    CHARGE:  cpu time    2.9939: real time    3.0144
    --------------------------------------------
      LOOP:  cpu time   34.4808: real time   34.7640

 eigenvalue-minimisations  :     0
 total energy-change (2. order) :-0.1911932E+00  (-0.7928705E-01)
 number of electron     216.0000000 magnetization 
 augmentation part       -0.5076580 magnetization 

 Free energy of the ion-electron system (eV)
  ---------------------------------------------------
  alpha Z        PSCENC =        47.94900195
  Ewald energy   TEWEN  =     43223.40734049
  -Hartree energ DENC   =    -50202.93900201
  -exchange      EXHF   =         0.00000000
  -V(xc)+E(xc)   XCENC  =       647.83554207
  PAW double counting   =    148553.15179132  -148412.85667095
  entropy T*S    EENTRO =        -0.00000000
  eigenvalues    EBANDS =     -2757.01374391
  atomic energy  EATOM  =      8369.52358910
  ---------------------------------------------------
  free energy    TOTEN  =      -530.94215194 eV

  energy without entropy =     -530.94215194  energy(sigma->0) =     -530.94215194


--------------------------------------------------------------------------------------------------------




--------------------------------------- Iteration      1(  11)  ---------------------------------------


    POTLOK:  cpu time    1.9219: real time    1.9338
    SETDIJ:  cpu time    0.2595: real time    0.2605
    TRIAL :  cpu time   19.9821: real time   20.1507
    CORREC:  cpu time    9.2446: real time    9.3313
    CHARGE:  cpu time    2.9905: real time    3.0132
    --------------------------------------------
      LOOP:  cpu time   34.4629: real time   34.7554

 eigenvalue-minimisations  :     0
 total energy-change (2. order) :-0.7913037E-01  (-0.3168574E-01)
 number of electron     216.0000000 magnetization 
 augmentation part       -0.5039840 magnetization 

 Free energy of the ion-electron system (eV)
  ---------------------------------------------------
  alpha Z        PSCENC =        47.94900195
  Ewald energy   TEWEN  =     43223.40734049
  -Hartree energ DENC   =    -50197.48874722
  -exchange      EXHF   =         0.00000000
  -V(xc)+E(xc)   XCENC  =       647.69413201
  PAW double counting   =    148547.58462122  -148407.28569594
  entropy T*S    EENTRO =        -0.00000000
  eigenvalues    EBANDS =     -2762.40552391
  atomic energy  EATOM  =      8369.52358910
  ---------------------------------------------------
  free energy    TOTEN  =      -531.02128231 eV

  energy without entropy =     -531.02128231  energy(sigma->0) =     -531.02128231


--------------------------------------------------------------------------------------------------------




--------------------------------------- Iteration      1(  12)  ---------------------------------------


    POTLOK:  cpu time    1.9225: real time    1.9361
    SETDIJ:  cpu time    0.2587: real time    0.2596
    TRIAL :  cpu time   19.9953: real time   20.1638
    CORREC:  cpu time    9.2585: real time    9.3208
    CHARGE:  cpu time    2.9890: real time    3.0093
    --------------------------------------------
      LOOP:  cpu time   34.5146: real time   34.7821

 eigenvalue-minimisations  :     0
 total energy-change (2. order) :-0.3165710E-01  (-0.1048156E-01)
 number of electron     216.0000000 magnetization 
 augmentation part       -0.5039172 magnetization 

 Free energy of the ion-electron system (eV)
  ---------------------------------------------------
  alpha Z        PSCENC =        47.94900195
  Ewald energy   TEWEN  =     43223.40734049
  -Hartree energ DENC   =    -50193.05711310
  -exchange      EXHF   =         0.00000000
  -V(xc)+E(xc)   XCENC  =       647.59561809
  PAW double counting   =    147929.06771051  -147788.79266982
  entropy T*S    EENTRO =        -0.00000000
  eigenvalues    EBANDS =     -2766.74641663
  atomic energy  EATOM  =      8369.52358910
  ---------------------------------------------------
  free energy    TOTEN  =      -531.05293941 eV

  energy without entropy =     -531.05293941  energy(sigma->0) =     -531.05293941


--------------------------------------------------------------------------------------------------------




--------------------------------------- Iteration      1(  13)  ---------------------------------------


    POTLOK:  cpu time    1.9203: real time    1.9309
    SETDIJ:  cpu time    0.2609: real time    0.2618
    TRIAL :  cpu time   20.0096: real time   20.1759
    CORREC:  cpu time    9.2571: real time    9.3303
    CHARGE:  cpu time    2.9803: real time    3.0045
    --------------------------------------------
      LOOP:  cpu time   34.4516: real time   34.7517

 eigenvalue-minimisations  :     0
 total energy-change (2. order) :-0.1049071E-01  (-0.2945039E-02)
 number of electron     216.0000000 magnetization 
 augmentation part       -0.5045435 magnetization 

 Free energy of the ion-electron system (eV)
  ---------------------------------------------------
  alpha Z        PSCENC =        47.94900195
  Ewald energy   TEWEN  =     43223.40734049
  -Hartree energ DENC   =    -50191.46747254
  -exchange      EXHF   =         0.00000000
  -V(xc)+E(xc)   XCENC  =       647.54147664
  PAW double counting   =    147407.50974436  -147267.24715800
  entropy T*S    EENTRO =        -0.00000000
  eigenvalues    EBANDS =     -2768.27995211
  atomic energy  EATOM  =      8369.52358910
  ---------------------------------------------------
  free energy    TOTEN  =      -531.06343011 eV

  energy without entropy =     -531.06343011  energy(sigma->0) =     -531.06343011


--------------------------------------------------------------------------------------------------------




--------------------------------------- Iteration      1(  14)  ---------------------------------------


    POTLOK:  cpu time    1.9222: real time    1.9342
    SETDIJ:  cpu time    0.2595: real time    0.2604
    TRIAL :  cpu time   19.9733: real time   20.1579
    CORREC:  cpu time    9.2660: real time    9.3306
    CHARGE:  cpu time    2.9804: real time    3.0015
    --------------------------------------------
      LOOP:  cpu time   34.4828: real time   34.7676

 eigenvalue-minimisations  :     0
 total energy-change (2. order) :-0.2949955E-02  (-0.7706014E-03)
 number of electron     216.0000000 magnetization 
 augmentation part       -0.5048177 magnetization 

 Free energy of the ion-electron system (eV)
  ---------------------------------------------------
  alpha Z        PSCENC =        47.94900195
  Ewald energy   TEWEN  =     43223.40734049
  -Hartree energ DENC   =    -50191.38474215
  -exchange      EXHF   =         0.00000000
  -V(xc)+E(xc)   XCENC  =       647.53450678
  PAW double counting   =    147159.53792325  -147019.28092623
  entropy T*S    EENTRO =        -0.00000000
  eigenvalues    EBANDS =     -2768.35307325
  atomic energy  EATOM  =      8369.52358910
  ---------------------------------------------------
  free energy    TOTEN  =      -531.06638007 eV

  energy without entropy =     -531.06638007  energy(sigma->0) =     -531.06638007


--------------------------------------------------------------------------------------------------------




--------------------------------------- Iteration      1(  15)  ---------------------------------------


    POTLOK:  cpu time    1.9224: real time    1.9329
    SETDIJ:  cpu time    0.2579: real time    0.2587
    TRIAL :  cpu time   19.9745: real time   20.1511
    CORREC:  cpu time    9.2598: real time    9.3242
    CHARGE:  cpu time    2.9916: real time    3.0139
    --------------------------------------------
      LOOP:  cpu time   34.4870: real time   34.7642

 eigenvalue-minimisations  :     0
 total energy-change (2. order) :-0.7709002E-03  (-0.2001757E-03)
 number of electron     216.0000000 magnetization 
 augmentation part       -0.5049453 magnetization 

 Free energy of the ion-electron system (eV)
  ---------------------------------------------------
  alpha Z        PSCENC =        47.94900195
  Ewald energy   TEWEN  =     43223.40734049
  -Hartree energ DENC   =    -50191.27654288
  -exchange      EXHF   =         0.00000000
  -V(xc)+E(xc)   XCENC  =       647.53493582
  PAW double counting   =    147060.29908114  -146920.04468275
  entropy T*S    EENTRO =        -0.00000000
  eigenvalues    EBANDS =     -2768.45987384
  atomic energy  EATOM  =      8369.52358910
  ---------------------------------------------------
  free energy    TOTEN  =      -531.06715097 eV

  energy without entropy =     -531.06715097  energy(sigma->0) =     -531.06715097


--------------------------------------------------------------------------------------------------------




--------------------------------------- Iteration      1(  16)  ---------------------------------------


    POTLOK:  cpu time    1.9220: real time    1.9327
    SETDIJ:  cpu time    0.2640: real time    0.2649
    TRIAL :  cpu time   20.0148: real time   20.1722
    CORREC:  cpu time    9.2599: real time    9.3226
    CHARGE:  cpu time    2.9952: real time    3.0194
    --------------------------------------------
      LOOP:  cpu time   34.5088: real time   34.7665

 eigenvalue-minimisations  :     0
 total energy-change (2. order) :-0.2005820E-03  (-0.6419631E-04)
 number of electron     216.0000000 magnetization 
 augmentation part       -0.5049768 magnetization 

 Free energy of the ion-electron system (eV)
  ---------------------------------------------------
  alpha Z        PSCENC =        47.94900195
  Ewald energy   TEWEN  =     43223.40734049
  -Hartree energ DENC   =    -50191.16824766
  -exchange      EXHF   =         0.00000000
  -V(xc)+E(xc)   XCENC  =       647.53284681
  PAW double counting   =    147002.80468867  -146862.55076596
  entropy T*S    EENTRO =        -0.00000000
  eigenvalues    EBANDS =     -2768.56580494
  atomic energy  EATOM  =      8369.52358910
  ---------------------------------------------------
  free energy    TOTEN  =      -531.06735155 eV

  energy without entropy =     -531.06735155  energy(sigma->0) =     -531.06735155


--------------------------------------------------------------------------------------------------------




--------------------------------------- Iteration      1(  17)  ---------------------------------------


    POTLOK:  cpu time    1.9148: real time    1.9352
    SETDIJ:  cpu time    0.2564: real time    0.2577
    TRIAL :  cpu time   19.9579: real time   20.1463
    CORREC:  cpu time    9.2738: real time    9.3372
    CHARGE:  cpu time    2.9882: real time    3.0115
    --------------------------------------------
      LOOP:  cpu time   34.4134: real time   34.7315

 eigenvalue-minimisations  :     0
 total energy-change (2. order) :-0.6361294E-04  (-0.2407083E-04)
 number of electron     216.0000000 magnetization 
 augmentation part       -0.5049836 magnetization 

 Free energy of the ion-electron system (eV)
  ---------------------------------------------------
  alpha Z        PSCENC =        47.94900195
  Ewald energy   TEWEN  =     43223.40734049
  -Hartree energ DENC   =    -50191.28166271
  -exchange      EXHF   =         0.00000000
  -V(xc)+E(xc)   XCENC  =       647.53930042
  PAW double counting   =    146960.57492233  -146820.32168764
  entropy T*S    EENTRO =        -0.00000000
  eigenvalues    EBANDS =     -2768.45821911
  atomic energy  EATOM  =      8369.52358910
  ---------------------------------------------------
  free energy    TOTEN  =      -531.06741516 eV

  energy without entropy =     -531.06741516  energy(sigma->0) =     -531.06741516


--------------------------------------------------------------------------------------------------------




--------------------------------------- Iteration      1(  18)  ---------------------------------------


    POTLOK:  cpu time    1.9219: real time    1.9324
    SETDIJ:  cpu time    0.2617: real time    0.2626
    TRIAL :  cpu time   19.9793: real time   20.1620
    CORREC:  cpu time    9.2648: real time    9.3340
    CHARGE:  cpu time    2.9862: real time    3.0071
    --------------------------------------------
      LOOP:  cpu time   34.4486: real time   34.7332

 eigenvalue-minimisations  :     0
 total energy-change (2. order) :-0.2318082E-04  (-0.9409718E-05)
 number of electron     216.0000000 magnetization 
 augmentation part       -0.5050116 magnetization 

 Free energy of the ion-electron system (eV)
  ---------------------------------------------------
  alpha Z        PSCENC =        47.94900195
  Ewald energy   TEWEN  =     43223.40734049
  -Hartree energ DENC   =    -50191.35741062
  -exchange      EXHF   =         0.00000000
  -V(xc)+E(xc)   XCENC  =       647.54270982
  PAW double counting   =    146942.70620487  -146802.45292918
  entropy T*S    EENTRO =        -0.00000000
  eigenvalues    EBANDS =     -2768.38594478
  atomic energy  EATOM  =      8369.52358910
  ---------------------------------------------------
  free energy    TOTEN  =      -531.06743834 eV

  energy without entropy =     -531.06743834  energy(sigma->0) =     -531.06743834


--------------------------------------------------------------------------------------------------------




--------------------------------------- Iteration      1(  19)  ---------------------------------------


    POTLOK:  cpu time    1.9227: real time    1.9329
    SETDIJ:  cpu time    0.2516: real time    0.2525
    TRIAL :  cpu time   20.0028: real time   20.1591
    CORREC:  cpu time    9.2647: real time    9.3272
    CHARGE:  cpu time    2.9866: real time    3.0080
    --------------------------------------------
      LOOP:  cpu time   34.5087: real time   34.7656

 eigenvalue-minimisations  :     0
 total energy-change (2. order) :-0.9115669E-05  (-0.4240608E-05)
 number of electron     216.0000000 magnetization 
 augmentation part       -0.5050246 magnetization 

 Free energy of the ion-electron system (eV)
  ---------------------------------------------------
  alpha Z        PSCENC =        47.94900195
  Ewald energy   TEWEN  =     43223.40734049
  -Hartree energ DENC   =    -50191.35937866
  -exchange      EXHF   =         0.00000000
  -V(xc)+E(xc)   XCENC  =       647.54216956
  PAW double counting   =    146944.87760803  -146804.62377566
  entropy T*S    EENTRO =        -0.00000000
  eigenvalues    EBANDS =     -2768.38400227
  atomic energy  EATOM  =      8369.52358910
  ---------------------------------------------------
  free energy    TOTEN  =      -531.06744746 eV

  energy without entropy =     -531.06744746  energy(sigma->0) =     -531.06744746


--------------------------------------------------------------------------------------------------------




--------------------------------------- Iteration      1(  20)  ---------------------------------------


    POTLOK:  cpu time    1.9241: real time    1.9347
    SETDIJ:  cpu time    0.2535: real time    0.2544
    TRIAL :  cpu time   19.9754: real time   20.1467
    CORREC:  cpu time    9.2565: real time    9.3235
    CHARGE:  cpu time    2.9850: real time    3.0065
    --------------------------------------------
      LOOP:  cpu time   34.4597: real time   34.7347

 eigenvalue-minimisations  :     0
 total energy-change (2. order) :-0.3691297E-05  (-0.9746434E-06)
 number of electron     216.0000000 magnetization 
 augmentation part       -0.5050294 magnetization 

 Free energy of the ion-electron system (eV)
  ---------------------------------------------------
  alpha Z        PSCENC =        47.94900195
  Ewald energy   TEWEN  =     43223.40734049
  -Hartree energ DENC   =    -50191.39393734
  -exchange      EXHF   =         0.00000000
  -V(xc)+E(xc)   XCENC  =       647.54337603
  PAW double counting   =    146954.19350377  -146813.93951721
  entropy T*S    EENTRO =        -0.00000000
  eigenvalues    EBANDS =     -2768.35080795
  atomic energy  EATOM  =      8369.52358910
  ---------------------------------------------------
  free energy    TOTEN  =      -531.06745115 eV

  energy without entropy =     -531.06745115  energy(sigma->0) =     -531.06745115


--------------------------------------------------------------------------------------------------------




--------------------------------------- Iteration      1(  21)  ---------------------------------------


    POTLOK:  cpu time    1.9424: real time    1.9532
    SETDIJ:  cpu time    0.2398: real time    0.2407
    TRIAL :  cpu time   19.9998: real time   20.1554
    CORREC:  cpu time    9.2478: real time    9.3236
    CHARGE:  cpu time    2.9916: real time    3.0158
    --------------------------------------------
      LOOP:  cpu time   34.5270: real time   34.7963

 eigenvalue-minimisations  :     0
 total energy-change (2. order) :-0.9648793E-06  (-0.3980178E-06)
 number of electron     216.0000000 magnetization 
 augmentation part       -0.5050252 magnetization 

 Free energy of the ion-electron system (eV)
  ---------------------------------------------------
  alpha Z        PSCENC =        47.94900195
  Ewald energy   TEWEN  =     43223.40734049
  -Hartree energ DENC   =    -50191.39254752
  -exchange      EXHF   =         0.00000000
  -V(xc)+E(xc)   XCENC  =       647.54292235
  PAW double counting   =    146957.96540799  -146817.71133606
  entropy T*S    EENTRO =        -0.00000000
  eigenvalues    EBANDS =     -2768.35183042
  atomic energy  EATOM  =      8369.52358910
  ---------------------------------------------------
  free energy    TOTEN  =      -531.06745212 eV

  energy without entropy =     -531.06745212  energy(sigma->0) =     -531.06745212


--------------------------------------------------------------------------------------------------------




--------------------------------------- Iteration      1(  22)  ---------------------------------------


    POTLOK:  cpu time    1.9238: real time    1.9343
    SETDIJ:  cpu time    0.2584: real time    0.2593
    TRIAL :  cpu time   20.0166: real time   20.1670
    CORREC:  cpu time    9.2490: real time    9.3155
    CHARGE:  cpu time    2.9957: real time    3.0197
    --------------------------------------------
      LOOP:  cpu time   34.5417: real time   34.7966

 eigenvalue-minimisations  :     0
 total energy-change (2. order) :-0.3588793E-06  (-0.1669556E-06)
 number of electron     216.0000000 magnetization 
 augmentation part       -0.5050190 magnetization 

 Free energy of the ion-electron system (eV)
  ---------------------------------------------------
  alpha Z        PSCENC =        47.94900195
  Ewald energy   TEWEN  =     43223.40734049
  -Hartree energ DENC   =    -50191.38868514
  -exchange      EXHF   =         0.00000000
  -V(xc)+E(xc)   XCENC  =       647.54267041
  PAW double counting   =    146958.80388754  -146818.54984166
  entropy T*S    EENTRO =        -0.00000000
  eigenvalues    EBANDS =     -2768.35541516
  atomic energy  EATOM  =      8369.52358910
  ---------------------------------------------------
  free energy    TOTEN  =      -531.06745247 eV

  energy without entropy =     -531.06745247  energy(sigma->0) =     -531.06745247


--------------------------------------------------------------------------------------------------------




--------------------------------------- Iteration      1(  23)  ---------------------------------------


    POTLOK:  cpu time    1.9220: real time    1.9326
    SETDIJ:  cpu time    0.2560: real time    0.2569
    TRIAL :  cpu time   19.9986: real time   20.1693
    CORREC:  cpu time    9.2598: real time    9.3251
    CHARGE:  cpu time    2.9843: real time    3.0054
    --------------------------------------------
      LOOP:  cpu time   34.4816: real time   34.7510

 eigenvalue-minimisations  :     0
 total energy-change (2. order) :-0.1343433E-06  (-0.5820700E-07)
 number of electron     216.0000000 magnetization 
 augmentation part       -0.5050177 magnetization 

 Free energy of the ion-electron system (eV)
  ---------------------------------------------------
  alpha Z        PSCENC =        47.94900195
  Ewald energy   TEWEN  =     43223.40734049
  -Hartree energ DENC   =    -50191.38670723
  -exchange      EXHF   =         0.00000000
  -V(xc)+E(xc)   XCENC  =       647.54262738
  PAW double counting   =    146958.87723830  -146818.62325447
  entropy T*S    EENTRO =        -0.00000000
  eigenvalues    EBANDS =     -2768.35728814
  atomic energy  EATOM  =      8369.52358910
  ---------------------------------------------------
  free energy    TOTEN  =      -531.06745261 eV

  energy without entropy =     -531.06745261  energy(sigma->0) =     -531.06745261


--------------------------------------------------------------------------------------------------------




--------------------------------------- Iteration      1(  24)  ---------------------------------------


    POTLOK:  cpu time    1.9258: real time    1.9361
    SETDIJ:  cpu time    0.2661: real time    0.2671
    TRIAL :  cpu time   20.0124: real time   20.1640
    CORREC:  cpu time    9.2498: real time    9.3141
    EDDIAG:  cpu time    4.1698: real time    4.2034
    CHARGE:  cpu time    2.9861: real time    3.0074
    --------------------------------------------
      LOOP:  cpu time   38.6903: real time   38.9794

 eigenvalue-minimisations  :     0
 total energy-change (2. order) :-0.3020978E-07  (-0.2801064E-07)
 number of electron     216.0000000 magnetization 
 augmentation part       -0.5050166 magnetization 

 Free energy of the ion-electron system (eV)
  ---------------------------------------------------
  alpha Z        PSCENC =        47.94900195
  Ewald energy   TEWEN  =     43223.40734049
  -Hartree energ DENC   =    -50191.38529672
  -exchange      EXHF   =         0.00000000
  -V(xc)+E(xc)   XCENC  =       647.54258569
  PAW double counting   =    146958.83563237  -146818.58166660
  entropy T*S    EENTRO =        -0.00000000
  eigenvalues    EBANDS =     -2768.35863892
  atomic energy  EATOM  =      8369.52358910
  ---------------------------------------------------
  free energy    TOTEN  =      -531.06745264 eV

  energy without entropy =     -531.06745264  energy(sigma->0) =     -531.06745264


--------------------------------------------------------------------------------------------------------


  average scaling for gradient   1.0581


 average (electrostatic) potential at core
  the test charge radii are     0.5770  0.5955
  (the norm of the test charge is              1.0000)
       1 -88.0713       2 -88.0695       3 -88.0718       4 -88.0718       5 -88.0664
       6 -88.0647       7 -88.0702       8 -88.0660       9 -88.0671      10 -88.0687
      11 -88.0636      12 -88.0650      13 -88.0678      14 -88.0633      15 -88.0633
      16 -88.0663      17 -88.0670      18 -88.0697      19 -88.0678      20 -88.0662
      21 -88.0657      22 -88.0618      23 -88.0701      24 -88.0685      25 -88.0655
      26 -88.0650      27 -88.0637      28 -88.0686      29 -88.0663      30 -88.0621
      31 -88.0665      32 -88.0673      33 -88.0666      34 -88.0666      35 -88.0626
      36 -88.0663      37 -88.0639      38 -88.0684      39 -88.0681      40 -88.0699
      41 -88.0708      42 -88.0716      43 -88.0686      44 -88.0701      45 -88.0654
      46 -88.0650      47 -88.0659      48 -88.0649      49 -88.0696      50 -88.0692
      51 -92.1536      52-124.2777      53-124.2823
 
 
 
 E-fermi :  -4.4237     XC(G=0):  -1.8873     alpha+bet : -1.6890

 Fermi energy:        -4.4237215466

 k-point     1 :       0.0000    0.0000    0.0000
  band No.  band energies     occupation 
      1     -29.2141      2.00000
      2     -28.1876      2.00000
      3     -23.5755      2.00000
      4     -22.5899      2.00000
      5     -22.5894      2.00000
      6     -22.5893      2.00000
      7     -22.5881      2.00000
      8     -22.5878      2.00000
      9     -22.5876      2.00000
     10     -20.6574      2.00000
     11     -20.6573      2.00000
     12     -20.6570      2.00000
     13     -20.6564      2.00000
     14     -20.6560      2.00000
     15     -20.6558      2.00000
     16     -19.7220      2.00000
     17     -19.7218      2.00000
     18     -19.7213      2.00000
     19     -19.7210      2.00000
     20     -19.7204      2.00000
     21     -19.7201      2.00000
     22     -17.5014      2.00000
     23     -17.5011      2.00000
     24     -17.5004      2.00000
     25     -17.5001      2.00000
     26     -17.4991      2.00000
     27     -17.4990      2.00000
     28     -16.3419      2.00000
     29     -16.3418      2.00000
     30     -16.3408      2.00000
     31     -16.3407      2.00000
     32     -16.3402      2.00000
     33     -16.3400      2.00000
     34     -14.9492      2.00000
     35     -14.9491      2.00000
     36     -14.9485      2.00000
     37     -14.9482      2.00000
     38     -14.9480      2.00000
     39     -14.9475      2.00000
     40     -13.1675      2.00000
     41     -12.4908      2.00000
     42     -12.4906      2.00000
     43     -12.4902      2.00000
     44     -12.4901      2.00000
     45     -12.4889      2.00000
     46     -12.4886      2.00000
     47     -12.2722      2.00000
     48     -12.2722      2.00000
     49     -12.2711      2.00000
     50     -12.2710      2.00000
     51     -12.2702      2.00000
     52     -12.2701      2.00000
     53     -11.8901      2.00000
     54     -11.6339      2.00000
     55     -11.6326      2.00000
     56     -10.9363      2.00000
     57     -10.8263      2.00000
     58     -10.8261      2.00000
     59     -10.8245      2.00000
     60     -10.8241      2.00000
     61     -10.8240      2.00000
     62     -10.8239      2.00000
     63      -9.7635      2.00000
     64      -9.7633      2.00000
     65      -9.7630      2.00000
     66      -9.7618      2.00000
     67      -9.7610      2.00000
     68      -9.7609      2.00000
     69      -9.5258      2.00000
     70      -9.5258      2.00000
     71      -9.5254      2.00000
     72      -9.5249      2.00000
     73      -9.5245      2.00000
     74      -9.5237      2.00000
     75      -9.5235      2.00000
     76      -9.5229      2.00000
     77      -9.5223      2.00000
     78      -9.5221      2.00000
     79      -9.5219      2.00000
     80      -9.5217      2.00000
     81      -8.0388      2.00000
     82      -8.0366      2.00000
     83      -7.8196      2.00000
     84      -7.8183      2.00000
     85      -7.8178      2.00000
     86      -7.8172      2.00000
     87      -7.8150      2.00000
     88      -7.8144      2.00000
     89      -7.5215      2.00000
     90      -7.5210      2.00000
     91      -7.5209      2.00000
     92      -7.5207      2.00000
     93      -7.5205      2.00000
     94      -7.5203      2.00000
     95      -6.5774      2.00000
     96      -6.5767      2.00000
     97      -6.5764      2.00000
     98      -6.5758      2.00000
     99      -6.5757      2.00000
    100      -6.5755      2.00000
    101      -6.3020      2.00000
    102      -6.2997      2.00000
    103      -4.4797      2.00000
    104      -4.4793      2.00000
    105      -4.4789      2.00000
    106      -4.4787      2.00000
    107      -4.4778      2.00000
    108      -4.4777      2.00000
    109      -1.5036      0.00000
    110      -1.5033      0.00000
    111      -1.5030      0.00000
    112      -1.5027      0.00000
    113      -1.5020      0.00000
    114      -1.5018      0.00000
    115       0.4758      0.00000
    116       0.4765      0.00000
    117       0.4769      0.00000
    118       0.4773      0.00000
    119       0.4774      0.00000
    120       0.4796      0.00000
    121       0.5997      0.00000
    122       1.0009      0.00000
    123       1.2399      0.00000
    124       1.2417      0.00000
    125       1.4642      0.00000
    126       1.7352      0.00000
    127       1.9455      0.00000
    128       1.9728      0.00000
    129       1.9840      0.00000
    130       1.9910      0.00000
    131       1.9941      0.00000
    132       1.9965      0.00000
    133       2.1466      0.00000
    134       2.3538      0.00000
    135       2.3541      0.00000
    136       2.3546      0.00000
    137       2.3550      0.00000
    138       2.3552      0.00000
    139       2.3556      0.00000
    140       2.4319      0.00000
    141       2.5841      0.00000
    142       2.6860      0.00000
    143       2.7040      0.00000
    144       2.7167      0.00000
    145       2.7316      0.00000
    146       2.7479      0.00000
    147       2.7698      0.00000
    148       2.7983      0.00000
    149       2.8201      0.00000
    150       2.8219      0.00000
    151       2.8563      0.00000
    152       3.1804      0.00000
    153       3.3546      0.00000
    154       3.4322      0.00000
    155       3.4672      0.00000
    156       3.6466      0.00000
    157       3.9793      0.00000
    158       4.2579      0.00000
    159       4.4734      0.00000
    160       4.6263      0.00000
    161       4.9089      0.00000
    162       4.9540      0.00000
    163       4.9593      0.00000
    164       4.9609      0.00000
    165       4.9621      0.00000
    166       4.9621      0.00000
    167       5.0039      0.00000
    168       5.4009      0.00000


--------------------------------------------------------------------------------------------------------


 soft charge-density along one line, spin component           1
         0         1         2         3         4         5         6         7         8         9
 total charge-density along one line
 
 pseudopotential strength for first ion, spin component:           1
 12.643  21.273  -0.000   0.000   0.000  -0.000   0.000   0.000
 21.273  35.793  -0.000   0.000   0.000  -0.000   0.000   0.000
 -0.000  -0.000  -3.239   0.000   0.000  -5.803   0.000   0.000
  0.000   0.000   0.000  -3.243   0.000   0.000  -5.810   0.000
  0.000   0.000   0.000   0.000  -3.239   0.000   0.000  -5.804
 -0.000  -0.000  -5.803   0.000   0.000 -10.375   0.000   0.000
  0.000   0.000   0.000  -5.810   0.000   0.000 -10.385   0.000
  0.000   0.000   0.000   0.000  -5.804   0.000   0.000 -10.375
 total augmentation occupancy for first ion, spin component:           1
  9.643  -3.599   0.000  -0.002  -0.001  -0.000   0.001   0.000
 -3.599   1.374  -0.000   0.001   0.000   0.000  -0.000  -0.000
  0.000  -0.000   8.197  -0.009   0.001  -2.896   0.003  -0.000
 -0.002   0.001  -0.009   3.784  -0.000   0.003  -1.107   0.000
 -0.001   0.000   0.001  -0.000   8.196  -0.000   0.000  -2.895
 -0.000   0.000  -2.896   0.003  -0.000   1.036  -0.001   0.000
  0.001  -0.000   0.003  -1.107   0.000  -0.001   0.329  -0.000
  0.000  -0.000  -0.000   0.000  -2.895   0.000  -0.000   1.035


------------------------ aborting loop because EDIFF is reached ----------------------------------------


    FORLOC:  cpu time    0.1411: real time    0.1421
    FORNL :  cpu time    3.7862: real time    3.8172
    FORCOR:  cpu time    1.9034: real time    1.9131
    OFIELD:  cpu time    0.0029: real time    0.0029

 VOLUME and BASIS-vectors are now :
 -----------------------------------------------------------------------------
  energy-cutoff  :     1000.00
  volume of cell :     3288.85
      direct lattice vectors                 reciprocal lattice vectors
    12.325000000  0.000000000  0.000000000     0.081135903  0.046843835  0.000000000
    -6.162500000 10.673763102  0.000000000     0.000000000  0.093687670  0.000000000
     0.000000000  0.000000000 25.000000000     0.000000000  0.000000000  0.040000000

  length of vectors
    12.325000000 12.325000000 25.000000000     0.093687670  0.093687670  0.040000000


 FORCES acting on ions:
    Electron-Ion                     Ewald-Force                    Non-Local-Force
 -----------------------------------------------------------------------------------------------
   0.216E+01 0.187E+01 0.205E+02   -.216E+01 -.187E+01 -.205E+02   -.218E-02 0.594E-02 0.918E-02
   0.305E+01 0.150E+01 0.225E+02   -.305E+01 -.151E+01 -.225E+02   -.115E-02 0.119E-01 -.458E-02
   0.125E+01 0.341E+01 0.235E+02   -.126E+01 -.342E+01 -.235E+02   0.934E-02 0.206E-01 0.262E-02
   0.161E+01 0.233E+01 0.277E+02   -.161E+01 -.234E+01 -.277E+02   0.219E-01 0.173E-01 -.116E-01
   0.231E+01 0.548E+00 0.208E+02   -.230E+01 -.557E+00 -.208E+02   -.106E-01 0.767E-02 0.314E-02
   0.236E+01 -.497E+00 0.210E+02   -.236E+01 0.491E+00 -.210E+02   -.109E-01 0.139E-01 -.640E-02
   0.310E+01 0.114E+01 0.269E+02   -.311E+01 -.115E+01 -.269E+02   0.157E-01 -.124E-02 -.418E-02
   0.304E+01 -.108E+01 0.281E+02   -.305E+01 0.108E+01 -.281E+02   -.344E-02 0.980E-02 -.380E-02
   -.154E+01 0.312E+01 0.238E+02   0.153E+01 -.313E+01 -.238E+02   0.152E-01 -.628E-02 -.529E-02
   -.220E+01 0.184E+01 0.276E+02   0.219E+01 -.185E+01 -.276E+02   -.154E-01 0.260E-01 0.499E-02
   0.609E+00 -.619E+00 0.193E+02   -.603E+00 0.620E+00 -.193E+02   0.131E-02 -.414E-02 -.284E-02
   0.540E+00 -.454E+00 0.188E+02   -.544E+00 0.459E+00 -.188E+02   -.540E-03 -.561E-02 0.438E-02
   0.114E+01 -.252E+01 0.296E+02   -.115E+01 0.252E+01 -.296E+02   0.331E-01 0.310E-03 0.260E-02
   0.683E+00 -.347E+01 0.249E+02   -.688E+00 0.347E+01 -.249E+02   0.365E-02 0.528E-02 -.165E-01
   -.210E+01 0.128E+01 0.203E+02   0.211E+01 -.128E+01 -.203E+02   0.647E-02 -.815E-03 0.519E-02
   -.279E+01 0.827E+00 0.211E+02   0.280E+01 -.829E+00 -.211E+02   -.399E-02 0.810E-02 -.123E-01
   -.389E+00 -.140E+00 0.183E+02   0.391E+00 0.150E+00 -.183E+02   0.404E-02 -.157E-01 0.224E-02
   0.165E+00 0.133E+01 0.187E+02   -.170E+00 -.133E+01 -.187E+02   0.526E-02 -.993E-02 0.115E-01
   -.538E+00 -.332E+01 0.225E+02   0.541E+00 0.333E+01 -.225E+02   -.282E-03 -.119E-01 -.238E-02
   -.294E+00 -.196E+01 0.197E+02   0.300E+00 0.197E+01 -.197E+02   -.138E-01 -.106E-01 0.174E-03
   0.306E+01 -.135E+01 0.235E+02   -.306E+01 0.135E+01 -.235E+02   -.255E-02 0.668E-02 -.234E-01
   0.210E+01 -.172E+01 0.217E+02   -.211E+01 0.172E+01 -.217E+02   -.406E-02 0.651E-02 -.245E-02
   -.576E+00 0.103E+01 0.305E+02   0.565E+00 -.104E+01 -.305E+02   0.413E-03 0.264E-01 0.884E-02
   -.765E+00 -.165E+01 0.303E+02   0.762E+00 0.164E+01 -.303E+02   0.192E-01 -.633E-02 -.507E-02
   0.113E+01 -.429E+00 0.194E+02   -.114E+01 0.433E+00 -.194E+02   0.999E-02 -.992E-02 -.832E-02
   0.272E+00 0.995E+00 0.193E+02   -.281E+00 -.990E+00 -.193E+02   0.835E-02 -.368E-02 0.605E-02
   -.346E+01 0.457E+00 0.246E+02   0.346E+01 -.464E+00 -.246E+02   0.167E-01 0.136E-01 -.540E-03
   -.330E+01 -.131E+01 0.238E+02   0.331E+01 0.131E+01 -.238E+02   -.111E-01 0.861E-02 -.339E-02
   0.122E+01 -.245E+01 0.221E+02   -.122E+01 0.245E+01 -.221E+02   0.608E-02 0.672E-03 -.144E-01
   0.105E+00 -.106E+01 0.200E+02   -.108E+00 0.107E+01 -.200E+02   -.504E-02 -.855E-03 -.232E-02
   -.239E+01 -.246E+01 0.258E+02   0.239E+01 0.246E+01 -.258E+02   -.133E-01 -.110E-01 -.131E-01
   -.168E+01 -.314E+01 0.226E+02   0.169E+01 0.315E+01 -.226E+02   -.686E-02 -.142E-01 0.201E-02
   0.160E+00 0.610E+00 0.187E+02   -.149E+00 -.614E+00 -.187E+02   -.110E-01 -.389E-03 0.787E-02
   0.393E+00 0.582E+00 0.192E+02   -.389E+00 -.586E+00 -.192E+02   -.139E-01 0.126E-01 -.378E-02
   -.145E+01 0.247E+00 0.197E+02   0.146E+01 -.251E+00 -.197E+02   -.401E-02 0.236E-02 0.723E-02
   -.129E+01 -.566E+00 0.196E+02   0.130E+01 0.565E+00 -.196E+02   -.607E-02 0.213E-02 -.139E-02
   -.248E+01 -.130E+01 0.205E+02   0.249E+01 0.130E+01 -.205E+02   -.303E-02 -.834E-02 0.530E-02
   -.162E+01 -.128E+01 0.193E+02   0.162E+01 0.129E+01 -.193E+02   -.482E-02 -.132E-01 0.910E-02
   -.147E+01 -.186E+01 0.198E+02   0.147E+01 0.188E+01 -.198E+02   -.915E-02 -.174E-01 0.674E-02
   -.217E+00 -.491E+00 0.188E+02   0.224E+00 0.499E+00 -.188E+02   -.583E-02 -.124E-01 0.997E-02
   0.551E+00 0.139E+01 0.190E+02   -.552E+00 -.139E+01 -.190E+02   -.358E-02 -.695E-02 0.966E-02
   0.168E+01 0.261E+01 0.207E+02   -.168E+01 -.261E+01 -.207E+02   0.112E-02 0.113E-02 0.110E-01
   0.155E+00 0.231E+01 0.196E+02   -.159E+00 -.231E+01 -.196E+02   0.132E-01 -.471E-02 0.311E-02
   -.516E-01 0.347E+01 0.223E+02   0.435E-01 -.348E+01 -.223E+02   0.669E-02 0.418E-02 0.733E-02
   -.443E+00 0.828E+00 0.197E+02   0.439E+00 -.830E+00 -.197E+02   0.132E-01 -.390E-02 -.319E-02
   -.166E+01 0.204E+01 0.210E+02   0.166E+01 -.204E+01 -.210E+02   0.337E-02 0.269E-03 -.538E-02
   -.398E+00 -.996E+00 0.193E+02   0.404E+00 0.996E+00 -.193E+02   -.328E-02 -.348E-02 0.274E-02
   -.889E+00 0.330E+00 0.188E+02   0.895E+00 -.327E+00 -.188E+02   -.151E-01 0.203E-02 -.633E-02
   0.105E+00 -.615E+00 0.188E+02   -.972E-01 0.620E+00 -.188E+02   -.898E-02 -.111E-01 0.804E-02
   0.992E+00 0.700E+00 0.188E+02   -.986E+00 -.698E+00 -.188E+02   -.140E-01 0.164E-02 0.506E-02
   0.113E-01 0.910E-02 -.272E+03   -.120E-01 -.118E-01 0.272E+03   -.169E-01 0.152E-01 -.312E-02
   -.228E+03 0.155E+03 -.421E+03   0.279E+03 -.190E+03 0.425E+03   -.527E+02 0.358E+02 -.354E+01
   0.228E+03 -.155E+03 -.399E+03   -.279E+03 0.190E+03 0.396E+03   0.527E+02 -.359E+02 0.317E+01
 -----------------------------------------------------------------------------------------------
   -.207E-01 0.570E-02 0.373E+00   0.114E-12 -.568E-13 -.227E-12   -.123E-01 0.181E-01 -.377E+00
 
 
 POSITION                                       TOTAL-FORCE (eV/Angst)
 -----------------------------------------------------------------------------------
     11.98348      0.00342      0.01417        -0.006317      0.006119     -0.000400
     -0.34154      1.42665      0.01100        -0.013626      0.018530     -0.002309
      2.12355      0.00315      0.01249         0.010283      0.017408     -0.006061
      2.12326      1.42653      0.00641         0.028273      0.019415     -0.006946
     10.75099      2.13819      0.01213        -0.007262      0.016601      0.000472
     -1.57382      3.56123      0.01110        -0.025801      0.013940     -0.002192
      0.89078      2.13854      0.00548         0.010174      0.011292      0.003846
      0.89099      3.56147      0.00181        -0.010865      0.011888      0.014333
      4.58864      0.00346      0.01135         0.026905     -0.018867     -0.002776
      4.58894      1.42623      0.00646         0.004340      0.028244      0.014961
      9.51854      4.27281      0.01369         0.016889      0.000966     -0.000762
     -2.80632      5.69591      0.01434        -0.005502     -0.017065      0.000022
      2.12300      4.27302      0.00000         0.023360      0.016617      0.023597
      2.12335      5.69594      0.00581         0.004137      0.005539     -0.000634
      7.05344      0.00333      0.01399         0.008922     -0.015369     -0.001349
      7.05353      1.42635      0.01368        -0.002318      0.013896     -0.006414
      8.28610      6.40752      0.01601         0.018397     -0.020952     -0.000371
     -4.03885      7.83070      0.01636         0.007779     -0.018629      0.000442
      3.35586      6.40753      0.01007        -0.014681     -0.011146     -0.002795
      3.35599      7.83072      0.01320        -0.017683     -0.007814      0.000421
     -0.34146      4.27290      0.00723         0.000548      0.020113     -0.005500
     -0.34138      5.69591      0.00946        -0.012296      0.003693      0.000624
      3.35624      2.13791      0.00222        -0.004767      0.033312      0.018731
      3.35573      3.56155      0.00139         0.033142     -0.007752      0.010760
     -1.57395      6.40758      0.01311         0.025835     -0.014798     -0.002106
     -1.57385      7.83068      0.01438         0.010274     -0.002846      0.000718
      5.82093      2.13784      0.01033         0.021437      0.006993     -0.001105
      5.82114      3.56097      0.01156         0.001925      0.001719     -0.006755
      0.89092      6.40755      0.00907         0.004404      0.000294     -0.004425
      0.89106      7.83068      0.01235        -0.007204      0.008704      0.001674
      4.58871      4.27293      0.00850        -0.023308     -0.002962     -0.011571
      4.58852      5.69606      0.01149         0.001617     -0.023712     -0.004917
      9.51845      0.00337      0.01490        -0.016833     -0.006045      0.000565
      9.51855      1.42644      0.01438        -0.030114      0.020442     -0.000775
      8.28593      2.13803      0.01453         0.002855     -0.000091      0.001756
      8.28613      3.56115      0.01464        -0.012209     -0.003997     -0.002443
      7.05356      4.27269      0.01457         0.004558     -0.008175      0.000405
      7.05362      5.69588      0.01553        -0.001513     -0.028609     -0.000679
      5.82112      6.40755      0.01489        -0.014890     -0.017778      0.000328
      5.82102      7.83073      0.01579        -0.004679     -0.019744      0.000540
      7.05363      8.54227      0.01631        -0.002909     -0.011040      0.001758
     -5.27149      9.96549      0.01495         0.001678     -0.001359     -0.001899
     -2.80638      8.54234      0.01558         0.028989     -0.015203     -0.000462
     -2.80627      9.96553      0.01362         0.017478      0.004006     -0.003333
     -0.34149      8.54239      0.01378         0.023507     -0.017042     -0.001437
     -0.34138      9.96550      0.01354         0.011517      0.010334     -0.002390
      2.12343      8.54232      0.01336        -0.012571     -0.013889     -0.000707
      2.12354      9.96544      0.01469        -0.023416      0.013782     -0.002645
      4.58846      8.54235      0.01505        -0.019308     -0.016280      0.002036
      4.58853      9.96550      0.01517        -0.024309      0.007047      0.001194
      3.04930      2.68154      6.29961        -0.032839      0.020864      0.039941
      4.02070      2.02068      6.36403        -1.674855      1.104494     -0.125178
      2.07767      3.34267      6.24015         1.672850     -1.115085      0.072213
 -----------------------------------------------------------------------------------
    total drift:                               -0.033084      0.023758     -0.003957


--------------------------------------------------------------------------------------------------------



  FREE ENERGIE OF THE ION-ELECTRON SYSTEM (eV)
  ---------------------------------------------------
  free  energy   TOTEN  =      -531.06745264 eV

  energy  without entropy=     -531.06745264  energy(sigma->0) =     -531.06745264
 


--------------------------------------------------------------------------------------------------------


    POTLOK:  cpu time    2.1996: real time    2.2124


--------------------------------------------------------------------------------------------------------


 writing wavefunctions
     LOOP+:  cpu time  869.4202: real time  876.8881
    4ORBIT:  cpu time    0.0000: real time    0.0000

 total amount of memory used by VASP MPI-rank0   698619. kBytes
=======================================================================

   base      :      30000. kBytes
   nonl-proj :     230539. kBytes
   fftplans  :      40716. kBytes
   grid      :     363125. kBytes
   one-center:        162. kBytes
   wavefun   :      34077. kBytes
 
  
  
 General timing and accounting informations for this job:
 ========================================================
  
                  Total CPU time used (sec):      914.842
                            User time (sec):      887.149
                          System time (sec):       27.694
                         Elapsed time (sec):      923.672
  
                   Maximum memory used (kb):     1233976.
                   Average memory used (kb):          N/A
  
                          Minor page faults:       191236
                          Major page faults:          135
                 Voluntary context switches:         3548
