 vasp.6.2.1 16May21 (build Nov 06 2021 14:46:37) complex                        
  
 executed on             LinuxIFC date 2025.04.16  23:49:44
 running on  112 total cores
 distrk:  each k-point on   56 cores,    2 groups
 distr:  one band on NCORE=   1 cores,   56 groups


--------------------------------------------------------------------------------------------------------


 INCAR:
   ALGO = Conjugate
   KPAR = 2
   NCORE = 32
   ISMEAR = 0
   SIGMA = 0.01
   PREC = Accurate
   EDIFF = 1E-7
   ENCUT = 1000
   ISIF = 0
   METAGGA = SCAN
   LASPH = .TRUE.
   SYMPREC = 1E-7

 POTCAR:    PAW_PBE C_h 06Feb2004                 
 POTCAR:    PAW_PBE O_h 06Feb2004                 
 -----------------------------------------------------------------------------
|                                                                             |
|           W    W    AA    RRRRR   N    N  II  N    N   GGGG   !!!           |
|           W    W   A  A   R    R  NN   N  II  NN   N  G    G  !!!           |
|           W    W  A    A  R    R  N N  N  II  N N  N  G       !!!           |
|           W WW W  AAAAAA  RRRRR   N  N N  II  N  N N  G  GGG   !            |
|           WW  WW  A    A  R   R   N   NN  II  N   NN  G    G                |
|           W    W  A    A  R    R  N    N  II  N    N   GGGG   !!!           |
|                                                                             |
|     The value NCORE = 32 specified in the INCAR file was overwritten,       |
|     because it was not compatible with the 56 processes available:          |
|     NCORE = 1                                                               |
|     was used instead, please check that this makes sense for your           |
|     machine.                                                                |
|                                                                             |
 -----------------------------------------------------------------------------

 -----------------------------------------------------------------------------
|                                                                             |
|           W    W    AA    RRRRR   N    N  II  N    N   GGGG   !!!           |
|           W    W   A  A   R    R  NN   N  II  NN   N  G    G  !!!           |
|           W    W  A    A  R    R  N N  N  II  N N  N  G       !!!           |
|           W WW W  AAAAAA  RRRRR   N  N N  II  N  N N  G  GGG   !            |
|           WW  WW  A    A  R   R   N   NN  II  N   NN  G    G                |
|           W    W  A    A  R    R  N    N  II  N    N   GGGG   !!!           |
|                                                                             |
|     For optimal performance we recommend to set                             |
|       NCORE = 2 up to number-of-cores-per-socket                            |
|     NCORE specifies how many cores store one orbital (NPAR=cpu/NCORE).      |
|     This setting can greatly improve the performance of VASP for DFT.       |
|     The default, NCORE=1 might be grossly inefficient on modern             |
|     multi-core architectures or massively parallel machines. Do your        |
|     own testing! More info at https://www.vasp.at/wiki/index.php/NCORE      |
|     Unfortunately you need to use the default for GW and RPA                |
|     calculations (for HF NCORE is supported but not extensively tested      |
|     yet).                                                                   |
|                                                                             |
 -----------------------------------------------------------------------------

 POTCAR:    PAW_PBE C_h 06Feb2004                 
   VRHFIN =C: s2p2                                                                                  
   LEXCH  = PE                                                                                      
   EATOM  =   147.1560 eV,   10.8157 Ry                                                             
                                                                                                    
   TITEL  = PAW_PBE C_h 06Feb2004                                                                   
   LULTRA =        F    use ultrasoft PP ?                                                          
   IUNSCR =        1    unscreen: 0-lin 1-nonlin 2-no                                               
   RPACOR =    0.800    partial core radius                                                         
   POMASS =   12.011; ZVAL   =    4.000    mass and valenz                                          
   RCORE  =    1.100    outmost cutoff radius                                                       
   RWIGS  =    1.630; RWIGS  =    0.863    wigner-seitz radius (au A)                               
   ENMAX  =  700.000; ENMIN  =  500.000 eV                                                          
   ICORE  =        2    local potential                                                             
   LCOR   =        T    correct aug charges                                                         
   LPAW   =        T    paw PP                                                                      
   EAUG   =  946.768                                                                                
   DEXC   =    0.000                                                                                
   RMAX   =    1.128    core radius for proj-oper                                                   
   RAUG   =    1.300    factor for augmentation sphere                                              
   RDEP   =    1.162    radius for radial grids                                                     
   RDEPT  =    1.088    core radius for aug-charge                                                  
                                                                                                    
   Atomic configuration                                                                             
    4 entries                                                                                       
     n  l   j            E        occ.                                                              
     1  0  0.50      -273.3789   2.0000                                                             
     2  0  0.50       -13.7508   2.0000                                                             
     2  1  0.50        -5.2854   2.0000                                                             
     3  2  1.50        -5.4423   0.0000                                                             
   Description                                                                                      
     l       E           TYP  RCUT    TYP  RCUT                                                     
     0    -13.7508458     23  1.100                                                                 
     0     -8.2022199     23  1.100                                                                 
     1     -5.2854383     23  1.100                                                                 
     1      1.1560700     23  1.100                                                                 
     2     -5.4423304      7  1.100                                                                 
  local pseudopotential read in
  partial core-charges read in
  partial kinetic energy density read in
  atomic valenz-charges read in
  non local Contribution for L=           0  read in
    real space projection operators read in
  non local Contribution for L=           0  read in
    real space projection operators read in
  non local Contribution for L=           1  read in
    real space projection operators read in
  non local Contribution for L=           1  read in
    real space projection operators read in
    PAW grid and wavefunctions read in
 
   number of l-projection  operators is LMAX  =           4
   number of lm-projection operators is LMMAX =           8
 
 POTCAR:    PAW_PBE O_h 06Feb2004                 
   VRHFIN =O: s2p4                                                                                  
   LEXCH  = PE                                                                                      
   EATOM  =   432.3788 eV,   31.7789 Ry                                                             
                                                                                                    
   TITEL  = PAW_PBE O_h 06Feb2004                                                                   
   LULTRA =        F    use ultrasoft PP ?                                                          
   IUNSCR =        1    unscreen: 0-lin 1-nonlin 2-no                                               
   RPACOR =    0.800    partial core radius                                                         
   POMASS =   16.000; ZVAL   =    6.000    mass and valenz                                          
   RCORE  =    1.100    outmost cutoff radius                                                       
   RWIGS  =    1.400; RWIGS  =    0.741    wigner-seitz radius (au A)                               
   ENMAX  =  700.000; ENMIN  =  500.000 eV                                                          
   ICORE  =        2    local potential                                                             
   LCOR   =        T    correct aug charges                                                         
   LPAW   =        T    paw PP                                                                      
   EAUG   =  888.804                                                                                
   DEXC   =    0.000                                                                                
   RMAX   =    1.128    core radius for proj-oper                                                   
   RAUG   =    1.300    factor for augmentation sphere                                              
   RDEP   =    1.125    radius for radial grids                                                     
   RDEPT  =    1.088    core radius for aug-charge                                                  
                                                                                                    
   Atomic configuration                                                                             
    4 entries                                                                                       
     n  l   j            E        occ.                                                              
     1  0  0.50      -514.6923   2.0000                                                             
     2  0  0.50       -23.9615   2.0000                                                             
     2  1  0.50        -9.0305   4.0000                                                             
     3  2  1.50        -9.5241   0.0000                                                             
   Description                                                                                      
     l       E           TYP  RCUT    TYP  RCUT                                                     
     0    -23.9615319     23  1.100                                                                 
     0    -25.3221145     23  1.100                                                                 
     1     -9.0304911     23  1.100                                                                 
     1     -5.4802209     23  1.100                                                                 
     2     -9.5240782      7  1.100                                                                 
  local pseudopotential read in
  partial core-charges read in
  partial kinetic energy density read in
  atomic valenz-charges read in
  non local Contribution for L=           0  read in
    real space projection operators read in
  non local Contribution for L=           0  read in
    real space projection operators read in
  non local Contribution for L=           1  read in
    real space projection operators read in
  non local Contribution for L=           1  read in
    real space projection operators read in
    PAW grid and wavefunctions read in
 
   number of l-projection  operators is LMAX  =           4
   number of lm-projection operators is LMMAX =           8
 
 -----------------------------------------------------------------------------
|                                                                             |
|               ----> ADVICE to this user running VASP <----                  |
|                                                                             |
|     You have a (more or less) 'large supercell' and for larger cells it     |
|     might be more efficient to use real-space projection operators.         |
|     Therefore, try LREAL= Auto in the INCAR file.                           |
|     Mind: For very accurate calculation, you might also keep the            |
|     reciprocal projection scheme (i.e. LREAL=.FALSE.).                      |
|                                                                             |
 -----------------------------------------------------------------------------

  PAW_PBE C_h 06Feb2004                 :
 energy of atom  1       EATOM= -147.1560
 kinetic energy error for atom=    0.0031 (will be added to EATOM!!)
  PAW_PBE O_h 06Feb2004                 :
 energy of atom  2       EATOM= -432.3788
 kinetic energy error for atom=    0.0171 (will be added to EATOM!!)
 
 
 POSCAR:  C  O
  positions in cartesian coordinates
  No initial velocities read in

 METAGGA = SCAN     LMAXTAU =  6    LMIXTAU =  F

 exchange correlation table for  LEXCH =        8
   RHO(1)=    0.500       N(1)  =     2000
   RHO(2)=  100.500       N(2)  =     4000
 


--------------------------------------------------------------------------------------------------------


 ion  position               nearest neighbor table
   1  0.972  0.000  0.001-  50 1.42   2 1.42  42 1.42
   2  0.039  0.134  0.000-   5 1.42   7 1.42   1 1.42
   3  0.172  0.000  0.000-  42 1.42  44 1.42   4 1.42
   4  0.239  0.134  0.000-   7 1.42   3 1.42  23 1.42
   5  0.972  0.200  0.000-   6 1.42   2 1.42  34 1.42
   6  0.039  0.334  0.000-   5 1.42  21 1.42  11 1.42
   7  0.172  0.200  0.000-   8 1.42   2 1.42   4 1.42
   8  0.239  0.334  0.000-  13 1.42   7 1.42  21 1.42
   9  0.372  0.000  0.000-  10 1.42  44 1.42  46 1.42
  10  0.439  0.134  0.000-  27 1.42   9 1.42  23 1.42
  11  0.972  0.400  0.001-  12 1.42  36 1.42   6 1.42
  12  0.039  0.534  0.001-  25 1.42  11 1.42  17 1.42
  13  0.372  0.400  0.000-   8 1.42  14 1.42  24 1.42
  14  0.439  0.534  0.000-  13 1.42  29 1.42  19 1.42
  15  0.572  0.000  0.001-  46 1.42  16 1.42  48 1.42
  16  0.639  0.134  0.001-  15 1.42  35 1.42  27 1.42
  17  0.972  0.600  0.001-  38 1.42  18 1.42  12 1.42
  18  0.039  0.734  0.001-  43 1.42  41 1.42  17 1.42
  19  0.572  0.600  0.000-  14 1.42  20 1.42  32 1.42
  20  0.639  0.734  0.001-  49 1.42  19 1.42  47 1.42
  21  0.172  0.400  0.000-  22 1.42   8 1.42   6 1.42
  22  0.239  0.534  0.000-  21 1.42  29 1.42  25 1.42
  23  0.372  0.200  0.000-  10 1.42   4 1.42  24 1.42
  24  0.439  0.334  0.000-  13 1.42  31 1.42  23 1.42
  25  0.172  0.600  0.001-  26 1.42  12 1.42  22 1.42
  26  0.239  0.734  0.001-  25 1.42  45 1.42  43 1.42
  27  0.572  0.200  0.000-  10 1.42  28 1.42  16 1.42
  28  0.639  0.334  0.000-  27 1.42  37 1.42  31 1.42
  29  0.372  0.600  0.000-  22 1.42  14 1.42  30 1.42
  30  0.439  0.734  0.000-  47 1.42  29 1.42  45 1.42
  31  0.572  0.400  0.000-  32 1.42  28 1.42  24 1.42
  32  0.639  0.534  0.000-  31 1.42  39 1.42  19 1.42
  33  0.772  0.000  0.001-  34 1.42  48 1.42  50 1.42
  34  0.839  0.134  0.001-  33 1.42   5 1.42  35 1.42
  35  0.772  0.200  0.001-  36 1.42  16 1.42  34 1.42
  36  0.839  0.334  0.001-  35 1.42  11 1.42  37 1.42
  37  0.772  0.400  0.001-  28 1.42  38 1.42  36 1.42
  38  0.839  0.534  0.001-  17 1.42  37 1.42  39 1.42
  39  0.772  0.600  0.001-  40 1.42  38 1.42  32 1.42
  40  0.839  0.734  0.001-  39 1.42  49 1.42  41 1.42
  41  0.972  0.800  0.001-  18 1.42  42 1.42  40 1.42
  42  0.039  0.934  0.001-   3 1.42  41 1.42   1 1.42
  43  0.172  0.800  0.001-  18 1.42  44 1.42  26 1.42
  44  0.239  0.934  0.001-   9 1.42  43 1.42   3 1.42
  45  0.372  0.800  0.001-  26 1.42  46 1.42  30 1.42
  46  0.439  0.934  0.001-  15 1.42  45 1.42   9 1.42
  47  0.572  0.800  0.001-  30 1.42  48 1.42  20 1.42
  48  0.639  0.934  0.001-  47 1.42  33 1.42  15 1.42
  49  0.772  0.800  0.001-  50 1.42  20 1.42  40 1.42
  50  0.839  0.934  0.001-  49 1.42   1 1.42  33 1.42
  51  0.373  0.251  0.378-  52 1.18  53 1.18
  52  0.421  0.189  0.380-  51 1.18
  53  0.325  0.313  0.375-  51 1.18
 
  LATTYP: Found a hexagonal cell.
 ALAT       =    12.3250000000
 C/A-ratio  =     2.0283975659
  
  Lattice vectors:
  
 A1 = (  12.3250000000,   0.0000000000,   0.0000000000)
 A2 = (  -6.1625000000,  10.6737631016,   0.0000000000)
 A3 = (   0.0000000000,   0.0000000000,  25.0000000000)


Analysis of symmetry for initial positions (statically):
=====================================================================
 Subroutine PRICEL returns:
 Original cell was already a primitive cell.
 

 Routine SETGRP: Setting up the symmetry group for a 
 hexagonal supercell.


 Subroutine GETGRP returns: Found  1 space group operations
 (whereof  1 operations were pure point group operations)
 out of a pool of 24 trial point group operations.


The static configuration has the point symmetry C_1 .


Analysis of symmetry for dynamics (positions and initial velocities):
=====================================================================
 Subroutine PRICEL returns:
 Original cell was already a primitive cell.
 

 Routine SETGRP: Setting up the symmetry group for a 
 hexagonal supercell.


 Subroutine GETGRP returns: Found  1 space group operations
 (whereof  1 operations were pure point group operations)
 out of a pool of 24 trial point group operations.


The dynamic configuration has the point symmetry C_1 .


 Subroutine INISYM returns: Found  1 space group operations
 (whereof  1 operations are pure point group operations),
 and found     1 'primitive' translations


----------------------------------------------------------------------------------------

                                     Primitive cell                                     

  volume of cell :    3288.8533

  direct lattice vectors                    reciprocal lattice vectors
    12.325000000  0.000000000  0.000000000     0.081135903  0.046843835  0.000000000
    -6.162500000 10.673763102  0.000000000     0.000000000  0.093687670  0.000000000
     0.000000000  0.000000000 25.000000000     0.000000000  0.000000000  0.040000000

  length of vectors
    12.325000000 12.325000000 25.000000000     0.093687670  0.093687670  0.040000000

  position of ions in fractional coordinates (direct lattice)
     0.972450841  0.000320818  0.000566711
     0.039118382  0.133659505  0.000440173
     0.172443627  0.000295449  0.000499628
     0.239096278  0.133647917  0.000256468
     0.972452058  0.200322012  0.000485219
     0.039128360  0.333643771  0.000444150
     0.172451764  0.200354552  0.000219167
     0.239124359  0.333665720  0.000072260
     0.372465565  0.000324403  0.000453913
     0.439137473  0.133619939  0.000258338
     0.972449824  0.400309362  0.000547611
     0.039124981  0.533636789  0.000573410
     0.372416176  0.400329481  0.000000000
     0.439099602  0.533638981  0.000232414
     0.572443676  0.000312125  0.000559580
     0.639110207  0.133631751  0.000547275
     0.972452703  0.600305653  0.000640289
     0.039124495  0.733640359  0.000654513
     0.572433471  0.600306242  0.000402895
     0.639111888  0.733641879  0.000527905
     0.172454630  0.400318228  0.000289045
     0.239120185  0.533636548  0.000378509
     0.372459750  0.200295993  0.000088997
     0.439107096  0.333673419  0.000055762
     0.172452155  0.600311506  0.000524340
     0.239123371  0.733638574  0.000575129
     0.572431082  0.200289171  0.000413296
     0.639112773  0.333618630  0.000462376
     0.372439808  0.600308022  0.000362844
     0.439116090  0.733637858  0.000494190
     0.572469358  0.400320504  0.000339918
     0.639119408  0.533650873  0.000459610
     0.772445723  0.000315427  0.000596161
     0.839116277  0.133640203  0.000575306
     0.772440513  0.200307432  0.000581033
     0.839120241  0.333635728  0.000585467
     0.772446320  0.400298367  0.000582978
     0.839118980  0.533633964  0.000621100
     0.772456143  0.600308173  0.000595712
     0.839115033  0.733643180  0.000631512
     0.972455313  0.800305582  0.000652233
     0.039114714  0.933643289  0.000598051
     0.172457971  0.800312211  0.000623372
     0.239134551  0.933647193  0.000544850
     0.372451396  0.800316674  0.000551399
     0.439124489  0.933644769  0.000541430
     0.572441101  0.800310054  0.000534535
     0.639115067  0.933638985  0.000587644
     0.772445098  0.800313187  0.000602062
     0.839116614  0.933644338  0.000606830
     0.373021009  0.251226878  0.377549725
     0.420879805  0.189313152  0.380126600
     0.325156981  0.313167186  0.375171530

  ion indices of the primitive-cell ions
   primitive index   ion index
                 1           1
                 2           2
                 3           3
                 4           4
                 5           5
                 6           6
                 7           7
                 8           8
                 9           9
                10          10
                11          11
                12          12
                13          13
                14          14
                15          15
                16          16
                17          17
                18          18
                19          19
                20          20
                21          21
                22          22
                23          23
                24          24
                25          25
                26          26
                27          27
                28          28
                29          29
                30          30
                31          31
                32          32
                33          33
                34          34
                35          35
                36          36
                37          37
                38          38
                39          39
                40          40
                41          41
                42          42
                43          43
                44          44
                45          45
                46          46
                47          47
                48          48
                49          49
                50          50
                51          51
                52          52
                53          53

----------------------------------------------------------------------------------------

 
 
 KPOINTS: auto                                    

Automatic generation of k-mesh.
 Grid dimensions read from file:
 generate k-points for:    1    1    1

 Generating k-lattice:

  Cartesian coordinates                     Fractional coordinates (reciprocal lattice)
     0.081135903  0.046843835  0.000000000     1.000000000 -0.000000000  0.000000000
     0.000000000  0.093687670  0.000000000     0.000000000  1.000000000  0.000000000
     0.000000000  0.000000000  0.040000000     0.000000000  0.000000000  1.000000000

  Length of vectors
     0.093687670  0.093687670  0.040000000

  Shift w.r.t. Gamma in fractional coordinates (k-lattice)
     0.000000000  0.000000000  0.000000000

 
 Subroutine IBZKPT returns following result:
 ===========================================
 
 Found      1 irreducible k-points:
 
 Following reciprocal coordinates:
            Coordinates               Weight
  0.000000  0.000000  0.000000      1.000000
 
 Following cartesian coordinates:
            Coordinates               Weight
  0.000000  0.000000  0.000000      1.000000
 


--------------------------------------------------------------------------------------------------------




 Dimension of arrays:
   k-points           NKPTS =      1   k-points in BZ     NKDIM =      1   number of bands    NBANDS=    168
   number of dos      NEDOS =    301   number of ions     NIONS =     53
   non local maximal  LDIM  =      4   non local SUM 2l+1 LMDIM =      8
   total plane-waves  NPLWV = ******
   max r-space proj   IRMAX =      1   max aug-charges    IRDMAX=  10008
   dimension x,y,z NGX =   128 NGY =  128 NGZ =  270
   dimension x,y,z NGXF=   256 NGYF=  256 NGZF=  540
   support grid    NGXF=   256 NGYF=  256 NGZF=  540
   ions per type =              51   2
   NGX,Y,Z   is equivalent  to a cutoff of  17.27, 17.27, 17.95 a.u.
   NGXF,Y,Z  is equivalent  to a cutoff of  34.53, 34.53, 35.91 a.u.

 SYSTEM =  unknown system                          
 POSCAR =   C  O                                   

 Startparameter for this run:
   NWRITE =      2    write-flag & timer
   PREC   = accura    normal or accurate (medium, high low for compatibility)
   ISTART =      0    job   : 0-new  1-cont  2-samecut
   ICHARG =      2    charge: 1-file 2-atom 10-const
   ISPIN  =      1    spin polarized calculation?
   LNONCOLLINEAR =      F non collinear calculations
   LSORBIT =      F    spin-orbit coupling
   INIWAV =      1    electr: 0-lowe 1-rand  2-diag
   LASPH  =      T    aspherical Exc in radial PAW
 Electronic Relaxation 1
   ENCUT  = 1000.0 eV  73.50 Ry    8.57 a.u.  31.78 31.78 64.46*2*pi/ulx,y,z
   ENINI  = 1000.0     initial cutoff
   ENAUG  =  946.8 eV  augmentation charge cutoff
   NELM   =     60;   NELMIN=  2; NELMDL= -5     # of ELM steps 
   EDIFF  = 0.1E-06   stopping-criterion for ELM
   LREAL  =      F    real-space projection
   NLSPLINE    = F    spline interpolate recip. space projectors
   LCOMPAT=      F    compatible to vasp.4.4
   GGA_COMPAT  = T    GGA compatible to vasp.4.4-vasp.4.6
   LMAXPAW     = -100 max onsite density
   LMAXMIX     =    2 max onsite mixed and CHGCAR
   VOSKOWN=      0    Vosko Wilk Nusair interpolation
   ROPT   =    0.00000   0.00000
 Ionic relaxation
   EDIFFG = 0.1E-05   stopping-criterion for IOM
   NSW    =      0    number of steps for IOM
   NBLOCK =      1;   KBLOCK =      1    inner block; outer block 
   IBRION =     -1    ionic relax: 0-MD 1-quasi-New 2-CG
   NFREE  =      0    steps in history (QN), initial steepest desc. (CG)
   ISIF   =      0    stress and relaxation
   IWAVPR =     10    prediction:  0-non 1-charg 2-wave 3-comb
   ISYM   =      2    0-nonsym 1-usesym 2-fastsym
   LCORR  =      T    Harris-Foulkes like correction to forces

   POTIM  = 0.5000    time-step for ionic-motion
   TEIN   =    0.0    initial temperature
   TEBEG  =    0.0;   TEEND  =   0.0 temperature during run
   SMASS  =  -3.00    Nose mass-parameter (am)
   estimated Nose-frequenzy (Omega)   =  0.10E-29 period in steps = 0.13E+47 mass=  -0.347E-26a.u.
   SCALEE = 1.0000    scale energy and forces
   NPACO  =    256;   APACO  = 16.0  distance and # of slots for P.C.
   PSTRESS=    0.0 pullay stress

  Mass of Ions in am
   POMASS =  12.01 16.00
  Ionic Valenz
   ZVAL   =   4.00  6.00
  Atomic Wigner-Seitz radii
   RWIGS  =  -1.00 -1.00
  virtual crystal weights 
   VCA    =   1.00  1.00
   NELECT =     216.0000    total number of electrons
   NUPDOWN=      -1.0000    fix difference up-down

 DOS related values:
   EMIN   =  10.00;   EMAX   =-10.00  energy-range for DOS
   EFERMI =   0.00
   ISMEAR =     0;   SIGMA  =   0.01  broadening in eV -4-tet -1-fermi 0-gaus

 Electronic relaxation 2 (details)
   IALGO  =     58    algorithm
   LDIAG  =      T    sub-space diagonalisation (order eigenvalues)
   LSUBROT=      F    optimize rotation matrix (better conditioning)
   TURBO    =      0    0=normal 1=particle mesh
   IRESTART =      0    0=no restart 2=restart with 2 vectors
   NREBOOT  =      0    no. of reboots
   NMIN     =      0    reboot dimension
   EREF     =   0.00    reference energy to select bands
   IMIX   =      4    mixing-type and parameters
     AMIX     =   0.40;   BMIX     =  1.00
     AMIX_MAG =   1.60;   BMIX_MAG =  1.00
     AMIN     =   0.10
     WC   =   100.;   INIMIX=   1;  MIXPRE=   1;  MAXMIX= -45

 Intra band minimization:
   WEIMIN = 0.0000     energy-eigenvalue tresh-hold
   EBREAK =  0.15E-09  absolut break condition
   DEPER  =   0.30     relativ break condition  

   TIME   =   0.40     timestep for ELM

  volume/ion in A,a.u.               =      62.05       418.76
  Fermi-wavevector in a.u.,A,eV,Ry     =   0.660508  1.248179  5.935820  0.436270
  Thomas-Fermi vector in A             =   1.732977
 
 Write flags
   LWAVE        =      T    write WAVECAR
   LDOWNSAMPLE  =      F    k-point downsampling of WAVECAR
   LCHARG       =      T    write CHGCAR
   LVTOT        =      F    write LOCPOT, total local potential
   LVHAR        =      F    write LOCPOT, Hartree potential only
   LELF         =      F    write electronic localiz. function (ELF)
   LORBIT       =      0    0 simple, 1 ext, 2 COOP (PROOUT), +10 PAW based schemes


 Dipole corrections
   LMONO  =      F    monopole corrections only (constant potential shift)
   LDIPOL =      F    correct potential (dipole corrections)
   IDIPOL =      0    1-x, 2-y, 3-z, 4-all directions 
   EPSILON=  1.0000000 bulk dielectric constant

 Exchange correlation treatment:
   GGA     =    --    GGA type
   LEXCH   =     8    internal setting for exchange type
   VOSKOWN=      0    Vosko Wilk Nusair interpolation
   LHFCALC =     F    Hartree Fock is set to
   LHFONE  =     F    Hartree Fock one center treatment
   AEXX    =    0.0000 exact exchange contribution

 Linear response parameters
   LEPSILON=     F    determine dielectric tensor
   LRPA    =     F    only Hartree local field effects (RPA)
   LNABLA  =     F    use nabla operator in PAW spheres
   LVEL    =     F    velocity operator in full k-point grid
   LINTERFAST=   F  fast interpolation
   KINTER  =     0    interpolate to denser k-point grid
   CSHIFT  =0.1000    complex shift for real part using Kramers Kronig
   OMEGAMAX=  -1.0    maximum frequency
   DEG_THRESHOLD= 0.2000000E-02 threshold for treating states as degnerate
   RTIME   =   -0.100 relaxation time in fs
  (WPLASMAI=    0.000 imaginary part of plasma frequency in eV, 0.658/RTIME)
   DFIELD  = 0.0000000 0.0000000 0.0000000 field for delta impulse in time
 
 Orbital magnetization related:
   ORBITALMAG=     F  switch on orbital magnetization
   LCHIMAG   =     F  perturbation theory with respect to B field
   DQ        =  0.001000  dq finite difference perturbation B field
   LLRAUG    =     F  two centre corrections for induced B field



--------------------------------------------------------------------------------------------------------


 Static calculation
 charge density and potential will be updated during run
 non-spin polarized calculation
 Conjugate gradient for all bands (Freysoldt, et al. PRB 79, 241103 (2009))
 preconditioned conjugated gradient                                        
 perform sub-space diagonalisation
    before iterative eigenvector-optimisation
 modified Broyden-mixing scheme, WC =      100.0
 initial mixing is a Kerker type mixing with AMIX =  0.4000 and BMIX =      1.0000
 Hartree-type preconditioning will be used
 using additional bands           60
 reciprocal scheme for non local part
 use partial core corrections
 no Harris-corrections to forces 
 use gradient corrections 
 use of overlap-Matrix (Vanderbilt PP)
 Gauss-broadening in eV      SIGMA  =   0.01


--------------------------------------------------------------------------------------------------------


  energy-cutoff  :     1000.00
  volume of cell :     3288.85
      direct lattice vectors                 reciprocal lattice vectors
    12.325000000  0.000000000  0.000000000     0.081135903  0.046843835  0.000000000
    -6.162500000 10.673763102  0.000000000     0.000000000  0.093687670  0.000000000
     0.000000000  0.000000000 25.000000000     0.000000000  0.000000000  0.040000000

  length of vectors
    12.325000000 12.325000000 25.000000000     0.093687670  0.093687670  0.040000000


 
 k-points in units of 2pi/SCALE and weight: auto                                    
   0.00000000  0.00000000  0.00000000       1.000
 
 k-points in reciprocal lattice and weights: auto                                    
   0.00000000  0.00000000  0.00000000       1.000
 
 position of ions in fractional coordinates (direct lattice) 
   0.97245084  0.00032082  0.00056671
   0.03911838  0.13365950  0.00044017
   0.17244363  0.00029545  0.00049963
   0.23909628  0.13364792  0.00025647
   0.97245206  0.20032201  0.00048522
   0.03912836  0.33364377  0.00044415
   0.17245176  0.20035455  0.00021917
   0.23912436  0.33366572  0.00007226
   0.37246557  0.00032440  0.00045391
   0.43913747  0.13361994  0.00025834
   0.97244982  0.40030936  0.00054761
   0.03912498  0.53363679  0.00057341
   0.37241618  0.40032948  0.00000000
   0.43909960  0.53363898  0.00023241
   0.57244368  0.00031213  0.00055958
   0.63911021  0.13363175  0.00054727
   0.97245270  0.60030565  0.00064029
   0.03912449  0.73364036  0.00065451
   0.57243347  0.60030624  0.00040289
   0.63911189  0.73364188  0.00052791
   0.17245463  0.40031823  0.00028904
   0.23912018  0.53363655  0.00037851
   0.37245975  0.20029599  0.00008900
   0.43910710  0.33367342  0.00005576
   0.17245216  0.60031151  0.00052434
   0.23912337  0.73363857  0.00057513
   0.57243108  0.20028917  0.00041330
   0.63911277  0.33361863  0.00046238
   0.37243981  0.60030802  0.00036284
   0.43911609  0.73363786  0.00049419
   0.57246936  0.40032050  0.00033992
   0.63911941  0.53365087  0.00045961
   0.77244572  0.00031543  0.00059616
   0.83911628  0.13364020  0.00057531
   0.77244051  0.20030743  0.00058103
   0.83912024  0.33363573  0.00058547
   0.77244632  0.40029837  0.00058298
   0.83911898  0.53363396  0.00062110
   0.77245614  0.60030817  0.00059571
   0.83911503  0.73364318  0.00063151
   0.97245531  0.80030558  0.00065223
   0.03911471  0.93364329  0.00059805
   0.17245797  0.80031221  0.00062337
   0.23913455  0.93364719  0.00054485
   0.37245140  0.80031667  0.00055140
   0.43912449  0.93364477  0.00054143
   0.57244110  0.80031005  0.00053453
   0.63911507  0.93363899  0.00058764
   0.77244510  0.80031319  0.00060206
   0.83911661  0.93364434  0.00060683
   0.37302101  0.25122688  0.37754973
   0.42087980  0.18931315  0.38012660
   0.32515698  0.31316719  0.37517153
 
 position of ions in cartesian coordinates  (Angst):
  11.98347958  0.00342433  0.01416777
  -0.34154264  1.42664989  0.01100432
   2.12354700  0.00315355  0.01249070
   2.12325634  1.42652621  0.00641170
  10.75098721  2.13818970  0.01213047
  -1.57382270  3.56123457  0.01110375
   0.89078307  2.13853702  0.00547917
   0.89099273  3.56146885  0.00180651
   4.58863896  0.00346260  0.01134782
   4.58893648  1.42622757  0.00645846
   9.51853763  4.27280730  0.01369027
  -2.80632132  5.69591267  0.01433526
   2.12299894  4.27302204  0.00000000
   2.12335237  5.69593607  0.00581036
   7.05344483  0.00333155  0.01398950
   7.05352764  1.42635365  0.01368187
   8.28609598  6.40752033  0.01600723
  -4.03884931  7.83070339  0.01636283
   3.35585531  6.40752662  0.01007237
   3.35598594  7.83071962  0.01319763
  -0.34145776  4.27290193  0.00722612
  -0.34137895  5.69591010  0.00946273
   3.35624236  2.13791198  0.00222492
   3.35573251  3.56155103  0.00139405
  -1.57394684  6.40758280  0.01310850
  -1.57385216  7.83068434  0.01437823
   5.82093107  2.13783916  0.01033241
   5.82114012  3.56096622  0.01155939
   0.89092245  6.40754561  0.00907111
   0.89106251  7.83067670  0.01235474
   4.58870974  4.27292622  0.00849795
   4.58852320  5.69606300  0.01149026
   9.51844972  0.00336679  0.01490402
   9.51855036  1.42644387  0.01438264
   8.28593477  2.13803408  0.01452582
   8.28612680  3.56114872  0.01463668
   7.05356221  4.27268994  0.01457444
   7.05362213  5.69588251  0.01552751
   5.82112285  6.40754723  0.01489279
   5.82101669  7.83073350  0.01578780
   7.05362858  8.54227219  0.01630582
  -5.27148792  9.96548729  0.01495127
  -2.80637951  8.54234295  0.01558431
  -2.80626749  9.96552896  0.01362126
  -0.34148805  8.54239058  0.01378498
  -0.34137657  9.96550309  0.01353576
   2.12342586  8.54231992  0.01336337
   2.12354296  9.96544135  0.01469111
   4.58845581  8.54235337  0.01505154
   4.58852904  9.96549848  0.01517076
   3.04929830  2.68153618  9.43874313
   4.02070129  2.02068374  9.50316499
   2.07766701  3.34267235  9.37928826
 


--------------------------------------------------------------------------------------------------------


 k-point   1 :   0.0000 0.0000 0.0000  plane waves:  236157

 maximum and minimum number of plane-waves per node :    236157   236157

 maximum number of plane-waves:    236157
 maximum index in each direction: 
   IXMAX=   31   IYMAX=   31   IZMAX=   64
   IXMIN=  -31   IYMIN=  -31   IZMIN=  -64


 serial   3D FFT for wavefunctions
 parallel 3D FFT for charge:
    minimum data exchange during FFTs selected (reduces bandwidth)


 total amount of memory used by VASP MPI-rank0   698619. kBytes
=======================================================================

   base      :      30000. kBytes
   nonl-proj :     230539. kBytes
   fftplans  :      40716. kBytes
   grid      :     363125. kBytes
   one-center:        162. kBytes
   wavefun   :      34077. kBytes
 
     INWAV:  cpu time    0.0000: real time    0.0000
 Broyden mixing: mesh for mixing (old mesh)
   NGX = 63   NGY = 63   NGZ =129
  (NGX  =256   NGY  =256   NGZ  =540)
  gives a total of 512001 points

 initial charge density was supplied:
 charge density of overlapping atoms calculated
 number of electron     216.0000000 magnetization 
 keeping initial charge density in first step


--------------------------------------------------------------------------------------------------------


 Maximum index for augmentation-charges          471 (set IRDMAX)


--------------------------------------------------------------------------------------------------------


 First call to EWALD:  gamma=   0.119
 Maximum number of real-space cells 4x 4x 2
 Maximum number of reciprocal cells 2x 2x 4

    FEWALD:  cpu time    0.0028: real time    0.0029


--------------------------------------- Iteration      1(   1)  ---------------------------------------


    POTLOK:  cpu time    1.9574: real time    1.9747
    SETDIJ:  cpu time    0.2548: real time    0.2560
    TRIAL :  cpu time   28.0080: real time   28.2741
    CORREC:  cpu time    0.0004: real time    0.0004
    --------------------------------------------
      LOOP:  cpu time   30.2368: real time   30.5240

 eigenvalue-minimisations  :   336
 total energy-change (2. order) : 0.2537461E+04  (-0.1080717E+05)
 number of electron     216.0000000 magnetization 
 augmentation part      216.0000000 magnetization 

 Free energy of the ion-electron system (eV)
  ---------------------------------------------------
  alpha Z        PSCENC =        47.94900195
  Ewald energy   TEWEN  =     40658.92799854
  -Hartree energ DENC   =    -46728.16613704
  -exchange      EXHF   =         0.00000000
  -V(xc)+E(xc)   XCENC  =       602.80196244
  PAW double counting   =      6339.73130699    -6197.22120962
  entropy T*S    EENTRO =        -0.00000000
  eigenvalues    EBANDS =      -556.08550188
  atomic energy  EATOM  =      8369.52358910
  ---------------------------------------------------
  free energy    TOTEN  =      2537.46101049 eV

  energy without entropy =     2537.46101049  energy(sigma->0) =     2537.46101049


--------------------------------------------------------------------------------------------------------




--------------------------------------- Iteration      1(   2)  ---------------------------------------


    TRIAL :  cpu time   45.6586: real time   46.0570
    CORREC:  cpu time    0.0001: real time    0.0001
    --------------------------------------------
      LOOP:  cpu time   45.7271: real time   46.1298

 eigenvalue-minimisations  :   672
 total energy-change (2. order) :-0.2539275E+04  (-0.2421283E+04)
 number of electron     216.0000000 magnetization 
 augmentation part      216.0000000 magnetization 

 Free energy of the ion-electron system (eV)
  ---------------------------------------------------
  alpha Z        PSCENC =        47.94900195
  Ewald energy   TEWEN  =     40658.92799854
  -Hartree energ DENC   =    -46728.16613704
  -exchange      EXHF   =         0.00000000
  -V(xc)+E(xc)   XCENC  =       602.80196244
  PAW double counting   =      6339.73130699    -6197.22120962
  entropy T*S    EENTRO =        -0.00000000
  eigenvalues    EBANDS =     -3095.36097451
  atomic energy  EATOM  =      8369.52358910
  ---------------------------------------------------
  free energy    TOTEN  =        -1.81446214 eV

  energy without entropy =       -1.81446214  energy(sigma->0) =       -1.81446214


--------------------------------------------------------------------------------------------------------




--------------------------------------- Iteration      1(   3)  ---------------------------------------


    TRIAL :  cpu time   30.9343: real time   31.1654
    CORREC:  cpu time    0.0001: real time    0.0001
    --------------------------------------------
      LOOP:  cpu time   30.9645: real time   31.1984

 eigenvalue-minimisations  :   392
 total energy-change (2. order) :-0.5879366E+03  (-0.5851849E+03)
 number of electron     216.0000000 magnetization 
 augmentation part      216.0000000 magnetization 

 Free energy of the ion-electron system (eV)
  ---------------------------------------------------
  alpha Z        PSCENC =        47.94900195
  Ewald energy   TEWEN  =     40658.92799854
  -Hartree energ DENC   =    -46728.16613704
  -exchange      EXHF   =         0.00000000
  -V(xc)+E(xc)   XCENC  =       602.80196244
  PAW double counting   =      6339.73130699    -6197.22120962
  entropy T*S    EENTRO =        -0.00000000
  eigenvalues    EBANDS =     -3683.29756025
  atomic energy  EATOM  =      8369.52358910
  ---------------------------------------------------
  free energy    TOTEN  =      -589.75104788 eV

  energy without entropy =     -589.75104788  energy(sigma->0) =     -589.75104788


--------------------------------------------------------------------------------------------------------




--------------------------------------- Iteration      1(   4)  ---------------------------------------


    TRIAL :  cpu time   33.8454: real time   34.1369
    CORREC:  cpu time    0.0001: real time    0.0003
    --------------------------------------------
      LOOP:  cpu time   33.9025: real time   34.2097

 eigenvalue-minimisations  :   448
 total energy-change (2. order) :-0.2986866E+02  (-0.2963198E+02)
 number of electron     216.0000000 magnetization 
 augmentation part      216.0000000 magnetization 

 Free energy of the ion-electron system (eV)
  ---------------------------------------------------
  alpha Z        PSCENC =        47.94900195
  Ewald energy   TEWEN  =     40658.92799854
  -Hartree energ DENC   =    -46728.16613704
  -exchange      EXHF   =         0.00000000
  -V(xc)+E(xc)   XCENC  =       602.80196244
  PAW double counting   =      6339.73130699    -6197.22120962
  entropy T*S    EENTRO =        -0.00000000
  eigenvalues    EBANDS =     -3713.16621808
  atomic energy  EATOM  =      8369.52358910
  ---------------------------------------------------
  free energy    TOTEN  =      -619.61970571 eV

  energy without entropy =     -619.61970571  energy(sigma->0) =     -619.61970571


--------------------------------------------------------------------------------------------------------




--------------------------------------- Iteration      1(   5)  ---------------------------------------


    TRIAL :  cpu time   30.9417: real time   31.1910
    CORREC:  cpu time    0.0001: real time    0.0001
    CHARGE:  cpu time    2.9901: real time    3.0110
    --------------------------------------------
      LOOP:  cpu time   34.0320: real time   34.3060

 eigenvalue-minimisations  :   392
 total energy-change (2. order) :-0.1025865E+01  (-0.1024101E+01)
 number of electron     216.0000000 magnetization 
 augmentation part       -0.4312776 magnetization 

 Free energy of the ion-electron system (eV)
  ---------------------------------------------------
  alpha Z        PSCENC =        47.94900195
  Ewald energy   TEWEN  =     40658.92799854
  -Hartree energ DENC   =    -46728.16613704
  -exchange      EXHF   =         0.00000000
  -V(xc)+E(xc)   XCENC  =       602.80196244
  PAW double counting   =      6339.73130699    -6197.22120962
  entropy T*S    EENTRO =        -0.00000000
  eigenvalues    EBANDS =     -3714.19208293
  atomic energy  EATOM  =      8369.52358910
  ---------------------------------------------------
  free energy    TOTEN  =      -620.64557056 eV

  energy without entropy =     -620.64557056  energy(sigma->0) =     -620.64557056


--------------------------------------------------------------------------------------------------------




--------------------------------------- Iteration      1(   6)  ---------------------------------------


    POTLOK:  cpu time    1.9244: real time    1.9349
    SETDIJ:  cpu time    0.2642: real time    0.2652
    TRIAL :  cpu time   20.0035: real time   20.1504
    CORREC:  cpu time    9.2401: real time    9.3029
    CHARGE:  cpu time    2.9837: real time    3.0059
    --------------------------------------------
      LOOP:  cpu time   34.4321: real time   34.7194

 eigenvalue-minimisations  :     0
 total energy-change (2. order) : 0.1041119E+03  (-0.1206055E+02)
 number of electron     216.0000000 magnetization 
 augmentation part       -0.4908851 magnetization 

 Free energy of the ion-electron system (eV)
  ---------------------------------------------------
  alpha Z        PSCENC =        47.94900195
  Ewald energy   TEWEN  =     40658.92799854
  -Hartree energ DENC   =    -48088.71517329
  -exchange      EXHF   =         0.00000000
  -V(xc)+E(xc)   XCENC  =       669.74970778
  PAW double counting   =    113858.63180700  -113721.85809709
  entropy T*S    EENTRO =        -0.00000000
  eigenvalues    EBANDS =     -2310.74252393
  atomic energy  EATOM  =      8369.52358910
  ---------------------------------------------------
  free energy    TOTEN  =      -516.53368994 eV

  energy without entropy =     -516.53368994  energy(sigma->0) =     -516.53368994


--------------------------------------------------------------------------------------------------------




--------------------------------------- Iteration      1(   7)  ---------------------------------------


    POTLOK:  cpu time    1.9083: real time    1.9184
    SETDIJ:  cpu time    0.2777: real time    0.2787
    TRIAL :  cpu time   19.9476: real time   20.1412
    CORREC:  cpu time    9.2463: real time    9.3065
    CHARGE:  cpu time    3.0132: real time    3.0416
    --------------------------------------------
      LOOP:  cpu time   34.4691: real time   34.7632

 eigenvalue-minimisations  :     0
 total energy-change (2. order) :-0.1207616E+02  (-0.1586555E+01)
 number of electron     216.0000000 magnetization 
 augmentation part       -0.5212705 magnetization 

 Free energy of the ion-electron system (eV)
  ---------------------------------------------------
  alpha Z        PSCENC =        47.94900195
  Ewald energy   TEWEN  =     40658.92799854
  -Hartree energ DENC   =    -47661.99729809
  -exchange      EXHF   =         0.00000000
  -V(xc)+E(xc)   XCENC  =       649.88645004
  PAW double counting   =    131994.80680764  -131855.28668083
  entropy T*S    EENTRO =        -0.00000000
  eigenvalues    EBANDS =     -2732.41972133
  atomic energy  EATOM  =      8369.52358910
  ---------------------------------------------------
  free energy    TOTEN  =      -528.60985297 eV

  energy without entropy =     -528.60985297  energy(sigma->0) =     -528.60985297


--------------------------------------------------------------------------------------------------------




--------------------------------------- Iteration      1(   8)  ---------------------------------------


    POTLOK:  cpu time    1.9142: real time    1.9243
    SETDIJ:  cpu time    0.2595: real time    0.2604
    TRIAL :  cpu time   19.9672: real time   20.1442
    CORREC:  cpu time    9.2625: real time    9.3271
    CHARGE:  cpu time    2.9815: real time    3.0023
    --------------------------------------------
      LOOP:  cpu time   34.4157: real time   34.6928

 eigenvalue-minimisations  :     0
 total energy-change (2. order) :-0.1586364E+01  (-0.5256201E+00)
 number of electron     216.0000000 magnetization 
 augmentation part       -0.5193538 magnetization 

 Free energy of the ion-electron system (eV)
  ---------------------------------------------------
  alpha Z        PSCENC =        47.94900195
  Ewald energy   TEWEN  =     40658.92799854
  -Hartree energ DENC   =    -47631.30978022
  -exchange      EXHF   =         0.00000000
  -V(xc)+E(xc)   XCENC  =       648.30140818
  PAW double counting   =    139980.57485315  -139840.57405194
  entropy T*S    EENTRO =        -0.00000000
  eigenvalues    EBANDS =     -2763.58923559
  atomic energy  EATOM  =      8369.52358910
  ---------------------------------------------------
  free energy    TOTEN  =      -530.19621683 eV

  energy without entropy =     -530.19621683  energy(sigma->0) =     -530.19621683


--------------------------------------------------------------------------------------------------------




--------------------------------------- Iteration      1(   9)  ---------------------------------------


    POTLOK:  cpu time    1.9154: real time    1.9262
    SETDIJ:  cpu time    0.2575: real time    0.2587
    TRIAL :  cpu time   19.9706: real time   20.1412
    CORREC:  cpu time    9.2505: real time    9.3158
    CHARGE:  cpu time    2.9770: real time    3.0104
    --------------------------------------------
      LOOP:  cpu time   34.3898: real time   34.6866

 eigenvalue-minimisations  :     0
 total energy-change (2. order) :-0.5252629E+00  (-0.2083873E+00)
 number of electron     216.0000000 magnetization 
 augmentation part       -0.5140767 magnetization 

 Free energy of the ion-electron system (eV)
  ---------------------------------------------------
  alpha Z        PSCENC =        47.94900195
  Ewald energy   TEWEN  =     40658.92799854
  -Hartree energ DENC   =    -47639.13966204
  -exchange      EXHF   =         0.00000000
  -V(xc)+E(xc)   XCENC  =       648.04298576
  PAW double counting   =    146281.49025262  -146141.28846089
  entropy T*S    EENTRO =        -0.00000000
  eigenvalues    EBANDS =     -2756.22718476
  atomic energy  EATOM  =      8369.52358910
  ---------------------------------------------------
  free energy    TOTEN  =      -530.72147971 eV

  energy without entropy =     -530.72147971  energy(sigma->0) =     -530.72147971


--------------------------------------------------------------------------------------------------------




--------------------------------------- Iteration      1(  10)  ---------------------------------------


    POTLOK:  cpu time    1.9230: real time    1.9332
    SETDIJ:  cpu time    0.2607: real time    0.2615
    TRIAL :  cpu time   19.9971: real time   20.1445
    CORREC:  cpu time    9.2514: real time    9.3169
    CHARGE:  cpu time    2.9783: real time    2.9996
    --------------------------------------------
      LOOP:  cpu time   34.4605: real time   34.7075

 eigenvalue-minimisations  :     0
 total energy-change (2. order) :-0.2080885E+00  (-0.8775115E-01)
 number of electron     216.0000000 magnetization 
 augmentation part       -0.5076196 magnetization 

 Free energy of the ion-electron system (eV)
  ---------------------------------------------------
  alpha Z        PSCENC =        47.94900195
  Ewald energy   TEWEN  =     40658.92799854
  -Hartree energ DENC   =    -47638.96323147
  -exchange      EXHF   =         0.00000000
  -V(xc)+E(xc)   XCENC  =       647.82892552
  PAW double counting   =    148799.91644219  -148659.61349987
  entropy T*S    EENTRO =        -0.00000000
  eigenvalues    EBANDS =     -2756.49879418
  atomic energy  EATOM  =      8369.52358910
  ---------------------------------------------------
  free energy    TOTEN  =      -530.92956821 eV

  energy without entropy =     -530.92956821  energy(sigma->0) =     -530.92956821


--------------------------------------------------------------------------------------------------------




--------------------------------------- Iteration      1(  11)  ---------------------------------------


    POTLOK:  cpu time    1.9247: real time    1.9355
    SETDIJ:  cpu time    0.2567: real time    0.2577
    TRIAL :  cpu time   20.0026: real time   20.1584
    CORREC:  cpu time    9.2553: real time    9.3305
    CHARGE:  cpu time    2.9848: real time    3.0084
    --------------------------------------------
      LOOP:  cpu time   34.5093: real time   34.7774

 eigenvalue-minimisations  :     0
 total energy-change (2. order) :-0.8757926E-01  (-0.3459778E-01)
 number of electron     216.0000000 magnetization 
 augmentation part       -0.5037336 magnetization 

 Free energy of the ion-electron system (eV)
  ---------------------------------------------------
  alpha Z        PSCENC =        47.94900195
  Ewald energy   TEWEN  =     40658.92799854
  -Hartree energ DENC   =    -47633.09407136
  -exchange      EXHF   =         0.00000000
  -V(xc)+E(xc)   XCENC  =       647.68785664
  PAW double counting   =    148686.38072005  -148546.07700685
  entropy T*S    EENTRO =        -0.00000000
  eigenvalues    EBANDS =     -2762.31523555
  atomic energy  EATOM  =      8369.52358910
  ---------------------------------------------------
  free energy    TOTEN  =      -531.01714747 eV

  energy without entropy =     -531.01714747  energy(sigma->0) =     -531.01714747


--------------------------------------------------------------------------------------------------------




--------------------------------------- Iteration      1(  12)  ---------------------------------------


    POTLOK:  cpu time    1.9241: real time    1.9348
    SETDIJ:  cpu time    0.2596: real time    0.2605
    TRIAL :  cpu time   19.9902: real time   20.1707
    CORREC:  cpu time    9.2532: real time    9.3251
    CHARGE:  cpu time    2.9811: real time    3.0052
    --------------------------------------------
      LOOP:  cpu time   34.4463: real time   34.7476

 eigenvalue-minimisations  :     0
 total energy-change (2. order) :-0.3456443E-01  (-0.1104288E-01)
 number of electron     216.0000000 magnetization 
 augmentation part       -0.5037225 magnetization 

 Free energy of the ion-electron system (eV)
  ---------------------------------------------------
  alpha Z        PSCENC =        47.94900195
  Ewald energy   TEWEN  =     40658.92799854
  -Hartree energ DENC   =    -47628.38733023
  -exchange      EXHF   =         0.00000000
  -V(xc)+E(xc)   XCENC  =       647.59021016
  PAW double counting   =    147963.12157778  -147822.84535020
  entropy T*S    EENTRO =        -0.00000000
  eigenvalues    EBANDS =     -2766.93140900
  atomic energy  EATOM  =      8369.52358910
  ---------------------------------------------------
  free energy    TOTEN  =      -531.05171190 eV

  energy without entropy =     -531.05171190  energy(sigma->0) =     -531.05171190


--------------------------------------------------------------------------------------------------------




--------------------------------------- Iteration      1(  13)  ---------------------------------------


    POTLOK:  cpu time    1.9208: real time    1.9330
    SETDIJ:  cpu time    0.2574: real time    0.2584
    TRIAL :  cpu time   19.9586: real time   20.1517
    CORREC:  cpu time    9.2663: real time    9.3286
    CHARGE:  cpu time    2.9927: real time    3.0152
    --------------------------------------------
      LOOP:  cpu time   34.4280: real time   34.7847

 eigenvalue-minimisations  :     0
 total energy-change (2. order) :-0.1105284E-01  (-0.3098893E-02)
 number of electron     216.0000000 magnetization 
 augmentation part       -0.5044214 magnetization 

 Free energy of the ion-electron system (eV)
  ---------------------------------------------------
  alpha Z        PSCENC =        47.94900195
  Ewald energy   TEWEN  =     40658.92799854
  -Hartree energ DENC   =    -47626.94646972
  -exchange      EXHF   =         0.00000000
  -V(xc)+E(xc)   XCENC  =       647.54327254
  PAW double counting   =    147406.91571552  -147266.65332916
  entropy T*S    EENTRO =        -0.00000000
  eigenvalues    EBANDS =     -2768.32254351
  atomic energy  EATOM  =      8369.52358910
  ---------------------------------------------------
  free energy    TOTEN  =      -531.06276475 eV

  energy without entropy =     -531.06276475  energy(sigma->0) =     -531.06276475


--------------------------------------------------------------------------------------------------------




--------------------------------------- Iteration      1(  14)  ---------------------------------------


    POTLOK:  cpu time    1.9358: real time    1.9476
    SETDIJ:  cpu time    0.2460: real time    0.2468
    TRIAL :  cpu time   19.9653: real time   20.1442
    CORREC:  cpu time    9.2409: real time    9.3171
    CHARGE:  cpu time    2.9881: real time    3.0084
    --------------------------------------------
      LOOP:  cpu time   34.4314: real time   34.7202

 eigenvalue-minimisations  :     0
 total energy-change (2. order) :-0.3103792E-02  (-0.8460635E-03)
 number of electron     216.0000000 magnetization 
 augmentation part       -0.5047526 magnetization 

 Free energy of the ion-electron system (eV)
  ---------------------------------------------------
  alpha Z        PSCENC =        47.94900195
  Ewald energy   TEWEN  =     40658.92799854
  -Hartree energ DENC   =    -47626.89672689
  -exchange      EXHF   =         0.00000000
  -V(xc)+E(xc)   XCENC  =       647.53715949
  PAW double counting   =    147153.37867238  -147013.12189137
  entropy T*S    EENTRO =        -0.00000000
  eigenvalues    EBANDS =     -2768.36367175
  atomic energy  EATOM  =      8369.52358910
  ---------------------------------------------------
  free energy    TOTEN  =      -531.06586854 eV

  energy without entropy =     -531.06586854  energy(sigma->0) =     -531.06586854


--------------------------------------------------------------------------------------------------------




--------------------------------------- Iteration      1(  15)  ---------------------------------------


    POTLOK:  cpu time    1.9240: real time    1.9345
    SETDIJ:  cpu time    0.2590: real time    0.2599
    TRIAL :  cpu time   19.9996: real time   20.1499
    CORREC:  cpu time    9.2534: real time    9.3305
    CHARGE:  cpu time    2.9848: real time    3.0077
    --------------------------------------------
      LOOP:  cpu time   34.4489: real time   34.7130

 eigenvalue-minimisations  :     0
 total energy-change (2. order) :-0.8461518E-03  (-0.2386019E-03)
 number of electron     216.0000000 magnetization 
 augmentation part       -0.5049106 magnetization 

 Free energy of the ion-electron system (eV)
  ---------------------------------------------------
  alpha Z        PSCENC =        47.94900195
  Ewald energy   TEWEN  =     40658.92799854
  -Hartree energ DENC   =    -47626.79644795
  -exchange      EXHF   =         0.00000000
  -V(xc)+E(xc)   XCENC  =       647.53826906
  PAW double counting   =    147049.55243373  -146909.29830975
  entropy T*S    EENTRO =        -0.00000000
  eigenvalues    EBANDS =     -2768.46324936
  atomic energy  EATOM  =      8369.52358910
  ---------------------------------------------------
  free energy    TOTEN  =      -531.06671469 eV

  energy without entropy =     -531.06671469  energy(sigma->0) =     -531.06671469


--------------------------------------------------------------------------------------------------------




--------------------------------------- Iteration      1(  16)  ---------------------------------------


    POTLOK:  cpu time    1.9166: real time    1.9394
    SETDIJ:  cpu time    0.2543: real time    0.2552
    TRIAL :  cpu time   20.0122: real time   20.1653
    CORREC:  cpu time    9.2494: real time    9.3124
    CHARGE:  cpu time    2.9879: real time    3.0091
    --------------------------------------------
      LOOP:  cpu time   34.4372: real time   34.7148

 eigenvalue-minimisations  :     0
 total energy-change (2. order) :-0.2388651E-03  (-0.8816532E-04)
 number of electron     216.0000000 magnetization 
 augmentation part       -0.5049571 magnetization 

 Free energy of the ion-electron system (eV)
  ---------------------------------------------------
  alpha Z        PSCENC =        47.94900195
  Ewald energy   TEWEN  =     40658.92799854
  -Hartree energ DENC   =    -47626.69837575
  -exchange      EXHF   =         0.00000000
  -V(xc)+E(xc)   XCENC  =       647.53675779
  PAW double counting   =    146988.46395028  -146848.21034473
  entropy T*S    EENTRO =        -0.00000000
  eigenvalues    EBANDS =     -2768.55953074
  atomic energy  EATOM  =      8369.52358910
  ---------------------------------------------------
  free energy    TOTEN  =      -531.06695356 eV

  energy without entropy =     -531.06695356  energy(sigma->0) =     -531.06695356


--------------------------------------------------------------------------------------------------------




--------------------------------------- Iteration      1(  17)  ---------------------------------------


    POTLOK:  cpu time    1.9219: real time    1.9322
    SETDIJ:  cpu time    0.2612: real time    0.2621
    TRIAL :  cpu time   20.0010: real time   20.1497
    CORREC:  cpu time    9.2488: real time    9.3122
    CHARGE:  cpu time    2.9873: real time    3.0102
    --------------------------------------------
      LOOP:  cpu time   34.4762: real time   34.7546

 eigenvalue-minimisations  :     0
 total energy-change (2. order) :-0.8690261E-04  (-0.4022473E-04)
 number of electron     216.0000000 magnetization 
 augmentation part       -0.5049832 magnetization 

 Free energy of the ion-electron system (eV)
  ---------------------------------------------------
  alpha Z        PSCENC =        47.94900195
  Ewald energy   TEWEN  =     40658.92799854
  -Hartree energ DENC   =    -47626.84341263
  -exchange      EXHF   =         0.00000000
  -V(xc)+E(xc)   XCENC  =       647.54482463
  PAW double counting   =    146942.96042480  -146802.70759776
  entropy T*S    EENTRO =        -0.00000000
  eigenvalues    EBANDS =     -2768.42186909
  atomic energy  EATOM  =      8369.52358910
  ---------------------------------------------------
  free energy    TOTEN  =      -531.06704046 eV

  energy without entropy =     -531.06704046  energy(sigma->0) =     -531.06704046


--------------------------------------------------------------------------------------------------------




--------------------------------------- Iteration      1(  18)  ---------------------------------------


    POTLOK:  cpu time    1.9246: real time    1.9353
    SETDIJ:  cpu time    0.2594: real time    0.2604
    TRIAL :  cpu time   19.9919: real time   20.1531
    CORREC:  cpu time    9.2433: real time    9.3064
    CHARGE:  cpu time    2.9925: real time    3.0141
    --------------------------------------------
      LOOP:  cpu time   34.4410: real time   34.7055

 eigenvalue-minimisations  :     0
 total energy-change (2. order) :-0.3839325E-04  (-0.1704448E-04)
 number of electron     216.0000000 magnetization 
 augmentation part       -0.5050248 magnetization 

 Free energy of the ion-electron system (eV)
  ---------------------------------------------------
  alpha Z        PSCENC =        47.94900195
  Ewald energy   TEWEN  =     40658.92799854
  -Hartree energ DENC   =    -47626.93503447
  -exchange      EXHF   =         0.00000000
  -V(xc)+E(xc)   XCENC  =       647.54895410
  PAW double counting   =    146925.66256331  -146785.40956296
  entropy T*S    EENTRO =        -0.00000000
  eigenvalues    EBANDS =     -2768.33458842
  atomic energy  EATOM  =      8369.52358910
  ---------------------------------------------------
  free energy    TOTEN  =      -531.06707885 eV

  energy without entropy =     -531.06707885  energy(sigma->0) =     -531.06707885


--------------------------------------------------------------------------------------------------------




--------------------------------------- Iteration      1(  19)  ---------------------------------------


    POTLOK:  cpu time    1.9249: real time    1.9355
    SETDIJ:  cpu time    0.2577: real time    0.2587
    TRIAL :  cpu time   19.9661: real time   20.1473
    CORREC:  cpu time    9.2443: real time    9.3086
    CHARGE:  cpu time    2.9875: real time    3.0080
    --------------------------------------------
      LOOP:  cpu time   34.4129: real time   34.6951

 eigenvalue-minimisations  :     0
 total energy-change (2. order) :-0.1654925E-04  (-0.7225673E-05)
 number of electron     216.0000000 magnetization 
 augmentation part       -0.5050295 magnetization 

 Free energy of the ion-electron system (eV)
  ---------------------------------------------------
  alpha Z        PSCENC =        47.94900195
  Ewald energy   TEWEN  =     40658.92799854
  -Hartree energ DENC   =    -47626.93109023
  -exchange      EXHF   =         0.00000000
  -V(xc)+E(xc)   XCENC  =       647.54782873
  PAW double counting   =    146933.96035380  -146793.70657575
  entropy T*S    EENTRO =        -0.00000000
  eigenvalues    EBANDS =     -2768.33820155
  atomic energy  EATOM  =      8369.52358910
  ---------------------------------------------------
  free energy    TOTEN  =      -531.06709540 eV

  energy without entropy =     -531.06709540  energy(sigma->0) =     -531.06709540


--------------------------------------------------------------------------------------------------------




--------------------------------------- Iteration      1(  20)  ---------------------------------------


    POTLOK:  cpu time    1.9244: real time    1.9349
    SETDIJ:  cpu time    0.2563: real time    0.2572
    TRIAL :  cpu time   19.9775: real time   20.1449
    CORREC:  cpu time    9.2609: real time    9.3240
    CHARGE:  cpu time    2.9836: real time    3.0053
    --------------------------------------------
      LOOP:  cpu time   34.4433: real time   34.7071

 eigenvalue-minimisations  :     0
 total energy-change (2. order) :-0.6779796E-05  (-0.1714312E-05)
 number of electron     216.0000000 magnetization 
 augmentation part       -0.5050298 magnetization 

 Free energy of the ion-electron system (eV)
  ---------------------------------------------------
  alpha Z        PSCENC =        47.94900195
  Ewald energy   TEWEN  =     40658.92799854
  -Hartree energ DENC   =    -47626.96465288
  -exchange      EXHF   =         0.00000000
  -V(xc)+E(xc)   XCENC  =       647.54890443
  PAW double counting   =    146947.97054914  -146807.71664641
  entropy T*S    EENTRO =        -0.00000000
  eigenvalues    EBANDS =     -2768.30584605
  atomic energy  EATOM  =      8369.52358910
  ---------------------------------------------------
  free energy    TOTEN  =      -531.06710218 eV

  energy without entropy =     -531.06710218  energy(sigma->0) =     -531.06710218


--------------------------------------------------------------------------------------------------------




--------------------------------------- Iteration      1(  21)  ---------------------------------------


    POTLOK:  cpu time    1.9322: real time    1.9429
    SETDIJ:  cpu time    0.2507: real time    0.2516
    TRIAL :  cpu time   19.9930: real time   20.1534
    CORREC:  cpu time    9.2478: real time    9.3099
    CHARGE:  cpu time    2.9872: real time    3.0085
    --------------------------------------------
      LOOP:  cpu time   34.4683: real time   34.7299

 eigenvalue-minimisations  :     0
 total energy-change (2. order) :-0.1723383E-05  (-0.6359570E-06)
 number of electron     216.0000000 magnetization 
 augmentation part       -0.5050219 magnetization 

 Free energy of the ion-electron system (eV)
  ---------------------------------------------------
  alpha Z        PSCENC =        47.94900195
  Ewald energy   TEWEN  =     40658.92799854
  -Hartree energ DENC   =    -47626.95855835
  -exchange      EXHF   =         0.00000000
  -V(xc)+E(xc)   XCENC  =       647.54817994
  PAW double counting   =    146953.13080378  -146812.87683795
  entropy T*S    EENTRO =        -0.00000000
  eigenvalues    EBANDS =     -2768.31128092
  atomic energy  EATOM  =      8369.52358910
  ---------------------------------------------------
  free energy    TOTEN  =      -531.06710391 eV

  energy without entropy =     -531.06710391  energy(sigma->0) =     -531.06710391


--------------------------------------------------------------------------------------------------------




--------------------------------------- Iteration      1(  22)  ---------------------------------------


    POTLOK:  cpu time    1.9245: real time    1.9347
    SETDIJ:  cpu time    0.2469: real time    0.2583
    TRIAL :  cpu time   19.9986: real time   20.1507
    CORREC:  cpu time    9.2634: real time    9.3316
    CHARGE:  cpu time    2.9885: real time    3.0091
    --------------------------------------------
      LOOP:  cpu time   34.4466: real time   34.7219

 eigenvalue-minimisations  :     0
 total energy-change (2. order) :-0.5812035E-06  (-0.2492655E-06)
 number of electron     216.0000000 magnetization 
 augmentation part       -0.5050135 magnetization 

 Free energy of the ion-electron system (eV)
  ---------------------------------------------------
  alpha Z        PSCENC =        47.94900195
  Ewald energy   TEWEN  =     40658.92799854
  -Hartree energ DENC   =    -47626.95266306
  -exchange      EXHF   =         0.00000000
  -V(xc)+E(xc)   XCENC  =       647.54784258
  PAW double counting   =    146954.40481145  -146814.15089598
  entropy T*S    EENTRO =        -0.00000000
  eigenvalues    EBANDS =     -2768.31678906
  atomic energy  EATOM  =      8369.52358910
  ---------------------------------------------------
  free energy    TOTEN  =      -531.06710449 eV

  energy without entropy =     -531.06710449  energy(sigma->0) =     -531.06710449


--------------------------------------------------------------------------------------------------------




--------------------------------------- Iteration      1(  23)  ---------------------------------------


    POTLOK:  cpu time    1.9253: real time    1.9359
    SETDIJ:  cpu time    0.2592: real time    0.2602
    TRIAL :  cpu time   20.0017: real time   20.1570
    CORREC:  cpu time    9.2809: real time    9.3433
    CHARGE:  cpu time    2.9761: real time    2.9984
    --------------------------------------------
      LOOP:  cpu time   34.5115: real time   34.7644

 eigenvalue-minimisations  :     0
 total energy-change (2. order) :-0.1988083E-06  (-0.8760298E-07)
 number of electron     216.0000000 magnetization 
 augmentation part       -0.5050111 magnetization 

 Free energy of the ion-electron system (eV)
  ---------------------------------------------------
  alpha Z        PSCENC =        47.94900195
  Ewald energy   TEWEN  =     40658.92799854
  -Hartree energ DENC   =    -47626.94968935
  -exchange      EXHF   =         0.00000000
  -V(xc)+E(xc)   XCENC  =       647.54776662
  PAW double counting   =    146954.68115320  -146814.42731169
  entropy T*S    EENTRO =        -0.00000000
  eigenvalues    EBANDS =     -2768.31961306
  atomic energy  EATOM  =      8369.52358910
  ---------------------------------------------------
  free energy    TOTEN  =      -531.06710469 eV

  energy without entropy =     -531.06710469  energy(sigma->0) =     -531.06710469


--------------------------------------------------------------------------------------------------------




--------------------------------------- Iteration      1(  24)  ---------------------------------------


    POTLOK:  cpu time    1.9272: real time    1.9375
    SETDIJ:  cpu time    0.2539: real time    0.2552
    TRIAL :  cpu time   19.9852: real time   20.1373
    CORREC:  cpu time    9.2436: real time    9.3063
    EDDIAG:  cpu time    4.1617: real time    4.1935
    CHARGE:  cpu time    2.9865: real time    3.0079
    --------------------------------------------
      LOOP:  cpu time   38.6599: real time   38.9431

 eigenvalue-minimisations  :     0
 total energy-change (2. order) :-0.5797483E-07  (-0.3840287E-07)
 number of electron     216.0000000 magnetization 
 augmentation part       -0.5050096 magnetization 

 Free energy of the ion-electron system (eV)
  ---------------------------------------------------
  alpha Z        PSCENC =        47.94900195
  Ewald energy   TEWEN  =     40658.92799854
  -Hartree energ DENC   =    -47626.94783489
  -exchange      EXHF   =         0.00000000
  -V(xc)+E(xc)   XCENC  =       647.54771298
  PAW double counting   =    146954.69717744  -146814.44335856
  entropy T*S    EENTRO =        -0.00000000
  eigenvalues    EBANDS =     -2768.32139131
  atomic energy  EATOM  =      8369.52358910
  ---------------------------------------------------
  free energy    TOTEN  =      -531.06710474 eV

  energy without entropy =     -531.06710474  energy(sigma->0) =     -531.06710474


--------------------------------------------------------------------------------------------------------


  average scaling for gradient   1.0092


 average (electrostatic) potential at core
  the test charge radii are     0.5770  0.5955
  (the norm of the test charge is              1.0000)
       1 -88.0705       2 -88.0692       3 -88.0704       4 -88.0698       5 -88.0667
       6 -88.0654       7 -88.0689       8 -88.0656       9 -88.0668      10 -88.0673
      11 -88.0644      12 -88.0654      13 -88.0666      14 -88.0631      15 -88.0640
      16 -88.0667      17 -88.0672      18 -88.0693      19 -88.0671      20 -88.0663
      21 -88.0663      22 -88.0627      23 -88.0678      24 -88.0663      25 -88.0664
      26 -88.0655      27 -88.0632      28 -88.0674      29 -88.0669      30 -88.0630
      31 -88.0648      32 -88.0661      33 -88.0668      34 -88.0672      35 -88.0632
      36 -88.0666      37 -88.0637      38 -88.0678      39 -88.0673      40 -88.0694
      41 -88.0702      42 -88.0707      43 -88.0687      44 -88.0693      45 -88.0663
      46 -88.0655      47 -88.0663      48 -88.0657      49 -88.0691      50 -88.0693
      51 -92.1540      52-124.2813      53-124.2840
 
 
 
 E-fermi :  -4.4125     XC(G=0):  -1.8903     alpha+bet : -1.6890

 Fermi energy:        -4.4124916661

 k-point     1 :       0.0000    0.0000    0.0000
  band No.  band energies     occupation 
      1     -29.2150      2.00000
      2     -28.1885      2.00000
      3     -23.5752      2.00000
      4     -22.5898      2.00000
      5     -22.5889      2.00000
      6     -22.5885      2.00000
      7     -22.5883      2.00000
      8     -22.5880      2.00000
      9     -22.5871      2.00000
     10     -20.6572      2.00000
     11     -20.6571      2.00000
     12     -20.6569      2.00000
     13     -20.6562      2.00000
     14     -20.6556      2.00000
     15     -20.6554      2.00000
     16     -19.7218      2.00000
     17     -19.7216      2.00000
     18     -19.7210      2.00000
     19     -19.7210      2.00000
     20     -19.7201      2.00000
     21     -19.7198      2.00000
     22     -17.5011      2.00000
     23     -17.5006      2.00000
     24     -17.5003      2.00000
     25     -17.4998      2.00000
     26     -17.4990      2.00000
     27     -17.4989      2.00000
     28     -16.3417      2.00000
     29     -16.3417      2.00000
     30     -16.3405      2.00000
     31     -16.3404      2.00000
     32     -16.3400      2.00000
     33     -16.3398      2.00000
     34     -14.9490      2.00000
     35     -14.9489      2.00000
     36     -14.9482      2.00000
     37     -14.9479      2.00000
     38     -14.9478      2.00000
     39     -14.9474      2.00000
     40     -13.1679      2.00000
     41     -12.4907      2.00000
     42     -12.4904      2.00000
     43     -12.4900      2.00000
     44     -12.4899      2.00000
     45     -12.4886      2.00000
     46     -12.4883      2.00000
     47     -12.2719      2.00000
     48     -12.2719      2.00000
     49     -12.2708      2.00000
     50     -12.2706      2.00000
     51     -12.2702      2.00000
     52     -12.2701      2.00000
     53     -11.8904      2.00000
     54     -11.6346      2.00000
     55     -11.6333      2.00000
     56     -10.9360      2.00000
     57     -10.8261      2.00000
     58     -10.8259      2.00000
     59     -10.8242      2.00000
     60     -10.8238      2.00000
     61     -10.8237      2.00000
     62     -10.8236      2.00000
     63      -9.7632      2.00000
     64      -9.7623      2.00000
     65      -9.7619      2.00000
     66      -9.7618      2.00000
     67      -9.7617      2.00000
     68      -9.7611      2.00000
     69      -9.5258      2.00000
     70      -9.5255      2.00000
     71      -9.5253      2.00000
     72      -9.5245      2.00000
     73      -9.5242      2.00000
     74      -9.5239      2.00000
     75      -9.5235      2.00000
     76      -9.5224      2.00000
     77      -9.5221      2.00000
     78      -9.5218      2.00000
     79      -9.5216      2.00000
     80      -9.5210      2.00000
     81      -8.0395      2.00000
     82      -8.0373      2.00000
     83      -7.8193      2.00000
     84      -7.8178      2.00000
     85      -7.8175      2.00000
     86      -7.8170      2.00000
     87      -7.8150      2.00000
     88      -7.8142      2.00000
     89      -7.5213      2.00000
     90      -7.5210      2.00000
     91      -7.5209      2.00000
     92      -7.5205      2.00000
     93      -7.5200      2.00000
     94      -7.5197      2.00000
     95      -6.5766      2.00000
     96      -6.5766      2.00000
     97      -6.5763      2.00000
     98      -6.5761      2.00000
     99      -6.5753      2.00000
    100      -6.5751      2.00000
    101      -6.3018      2.00000
    102      -6.2995      2.00000
    103      -4.4795      2.00000
    104      -4.4791      2.00000
    105      -4.4783      2.00000
    106      -4.4783      2.00000
    107      -4.4779      2.00000
    108      -4.4778      2.00000
    109      -1.5032      0.00000
    110      -1.5030      0.00000
    111      -1.5029      0.00000
    112      -1.5026      0.00000
    113      -1.5018      0.00000
    114      -1.5015      0.00000
    115       0.4766      0.00000
    116       0.4769      0.00000
    117       0.4771      0.00000
    118       0.4775      0.00000
    119       0.4778      0.00000
    120       0.4791      0.00000
    121       0.6788      0.00000
    122       0.9260      0.00000
    123       1.2408      0.00000
    124       1.2421      0.00000
    125       1.4199      0.00000
    126       1.8012      0.00000
    127       1.9824      0.00000
    128       1.9859      0.00000
    129       1.9868      0.00000
    130       1.9887      0.00000
    131       1.9895      0.00000
    132       1.9898      0.00000
    133       2.2560      0.00000
    134       2.2889      0.00000
    135       2.3543      0.00000
    136       2.3545      0.00000
    137       2.3548      0.00000
    138       2.3551      0.00000
    139       2.3554      0.00000
    140       2.3558      0.00000
    141       2.5861      0.00000
    142       2.6993      0.00000
    143       2.7085      0.00000
    144       2.7168      0.00000
    145       2.7232      0.00000
    146       2.7255      0.00000
    147       2.7285      0.00000
    148       2.7685      0.00000
    149       2.7939      0.00000
    150       2.8110      0.00000
    151       2.8330      0.00000
    152       3.1460      0.00000
    153       3.4289      0.00000
    154       3.6938      0.00000
    155       4.0068      0.00000
    156       4.1094      0.00000
    157       4.1110      0.00000
    158       4.2421      0.00000
    159       4.3935      0.00000
    160       4.4130      0.00000
    161       4.5678      0.00000
    162       4.7857      0.00000
    163       4.9260      0.00000
    164       4.9459      0.00000
    165       4.9520      0.00000
    166       4.9533      0.00000
    167       4.9612      0.00000
    168       4.9613      0.00000


--------------------------------------------------------------------------------------------------------


 soft charge-density along one line, spin component           1
         0         1         2         3         4         5         6         7         8         9
 total charge-density along one line
 
 pseudopotential strength for first ion, spin component:           1
 12.643  21.273  -0.000   0.000   0.000  -0.000   0.000   0.000
 21.273  35.792  -0.000   0.000   0.000  -0.000   0.000   0.000
 -0.000  -0.000  -3.239   0.000   0.000  -5.803   0.000   0.000
  0.000   0.000   0.000  -3.243   0.000   0.000  -5.810   0.000
  0.000   0.000   0.000   0.000  -3.239   0.000   0.000  -5.804
 -0.000  -0.000  -5.803   0.000   0.000 -10.375   0.000   0.000
  0.000   0.000   0.000  -5.810   0.000   0.000 -10.385   0.000
  0.000   0.000   0.000   0.000  -5.804   0.000   0.000 -10.375
 total augmentation occupancy for first ion, spin component:           1
  9.643  -3.599   0.000  -0.002  -0.001  -0.000   0.001   0.000
 -3.599   1.374  -0.000   0.001   0.001   0.000  -0.000  -0.000
  0.000  -0.000   8.197  -0.009   0.001  -2.896   0.003  -0.000
 -0.002   0.001  -0.009   3.784  -0.000   0.003  -1.107   0.000
 -0.001   0.001   0.001  -0.000   8.196  -0.000   0.000  -2.895
 -0.000   0.000  -2.896   0.003  -0.000   1.036  -0.001   0.000
  0.001  -0.000   0.003  -1.107   0.000  -0.001   0.329  -0.000
  0.000  -0.000  -0.000   0.000  -2.895   0.000  -0.000   1.035


------------------------ aborting loop because EDIFF is reached ----------------------------------------


    FORLOC:  cpu time    0.1357: real time    0.1367
    FORNL :  cpu time    3.7845: real time    3.8168
    FORCOR:  cpu time    1.9036: real time    1.9174
    OFIELD:  cpu time    0.0029: real time    0.0029

 VOLUME and BASIS-vectors are now :
 -----------------------------------------------------------------------------
  energy-cutoff  :     1000.00
  volume of cell :     3288.85
      direct lattice vectors                 reciprocal lattice vectors
    12.325000000  0.000000000  0.000000000     0.081135903  0.046843835  0.000000000
    -6.162500000 10.673763102  0.000000000     0.000000000  0.093687670  0.000000000
     0.000000000  0.000000000 25.000000000     0.000000000  0.000000000  0.040000000

  length of vectors
    12.325000000 12.325000000 25.000000000     0.093687670  0.093687670  0.040000000


 FORCES acting on ions:
    Electron-Ion                     Ewald-Force                    Non-Local-Force
 -----------------------------------------------------------------------------------------------
   0.344E+00 0.309E+00 0.101E+02   -.339E+00 -.314E+00 -.101E+02   -.436E-02 0.616E-02 0.802E-02
   0.465E+00 0.288E+00 0.109E+02   -.464E+00 -.296E+00 -.109E+02   -.443E-02 0.128E-01 -.497E-02
   0.174E+00 0.493E+00 0.107E+02   -.183E+00 -.498E+00 -.107E+02   0.967E-02 0.179E-01 -.130E-02
   0.223E+00 0.332E+00 0.126E+02   -.226E+00 -.343E+00 -.126E+02   0.198E-01 0.164E-01 -.181E-01
   0.421E+00 0.112E+00 0.106E+02   -.410E+00 -.123E+00 -.106E+02   -.125E-01 0.913E-02 0.514E-02
   0.424E+00 -.108E+00 0.107E+02   -.424E+00 0.101E+00 -.107E+02   -.113E-01 0.148E-01 -.330E-02
   0.419E+00 0.233E+00 0.128E+02   -.420E+00 -.247E+00 -.128E+02   0.120E-01 0.413E-03 -.711E-02
   0.464E+00 -.126E+00 0.140E+02   -.468E+00 0.116E+00 -.139E+02   -.742E-02 0.123E-01 -.388E-02
   -.213E+00 0.540E+00 0.111E+02   0.204E+00 -.547E+00 -.111E+02   0.182E-01 -.922E-02 -.512E-02
   -.221E+00 0.202E+00 0.130E+02   0.213E+00 -.209E+00 -.129E+02   -.116E-01 0.234E-01 0.206E-02
   0.111E+00 -.103E+00 0.101E+02   -.106E+00 0.104E+00 -.101E+02   0.227E-02 -.422E-02 -.323E-03
   0.116E+00 -.892E-01 0.993E+01   -.123E+00 0.956E-01 -.993E+01   0.112E-02 -.624E-02 0.655E-02
   0.522E-01 -.339E+00 0.147E+02   -.554E-01 0.334E+00 -.146E+02   0.295E-01 0.320E-02 -.298E-04
   0.461E-01 -.588E+00 0.124E+02   -.477E-01 0.589E+00 -.123E+02   0.662E-03 0.797E-02 -.160E-01
   -.400E+00 0.233E+00 0.102E+02   0.402E+00 -.237E+00 -.102E+02   0.691E-02 -.149E-02 0.834E-02
   -.477E+00 0.106E+00 0.102E+02   0.477E+00 -.107E+00 -.102E+02   -.178E-02 0.650E-02 -.973E-02
   -.650E-01 -.189E-01 0.952E+01   0.641E-01 0.293E-01 -.952E+01   0.614E-02 -.165E-01 0.288E-02
   0.305E-01 0.239E+00 0.953E+01   -.372E-01 -.231E+00 -.954E+01   0.669E-02 -.110E-01 0.115E-01
   -.111E+00 -.526E+00 0.111E+02   0.116E+00 0.534E+00 -.111E+02   -.235E-02 -.988E-02 -.331E-02
   -.613E-01 -.331E+00 0.102E+02   0.695E-01 0.337E+00 -.102E+02   -.157E-01 -.901E-02 0.668E-03
   0.534E+00 -.214E+00 0.118E+02   -.531E+00 0.208E+00 -.118E+02   -.485E-02 0.854E-02 -.200E-01
   0.395E+00 -.313E+00 0.112E+02   -.399E+00 0.313E+00 -.112E+02   -.460E-02 0.693E-02 0.137E-02
   -.876E-01 0.113E+00 0.143E+02   0.744E-01 -.121E+00 -.143E+02   0.169E-02 0.251E-01 0.112E-02
   -.144E+00 -.205E+00 0.143E+02   0.143E+00 0.196E+00 -.143E+02   0.181E-01 -.436E-02 -.124E-01
   0.200E+00 -.688E-01 0.101E+02   -.203E+00 0.731E-01 -.101E+02   0.110E-01 -.103E-01 -.529E-02
   0.654E-01 0.173E+00 0.994E+01   -.765E-01 -.166E+00 -.995E+01   0.101E-01 -.473E-02 0.847E-02
   -.567E+00 0.409E-02 0.115E+02   0.565E+00 -.939E-02 -.115E+02   0.204E-01 0.118E-01 -.956E-03
   -.480E+00 -.224E+00 0.110E+02   0.482E+00 0.225E+00 -.110E+02   -.765E-02 0.761E-02 -.581E-02
   0.191E+00 -.441E+00 0.113E+02   -.190E+00 0.441E+00 -.112E+02   0.376E-02 0.173E-02 -.112E-01
   0.258E-01 -.186E+00 0.103E+02   -.271E-01 0.191E+00 -.103E+02   -.593E-02 -.739E-03 0.674E-03
   -.348E+00 -.321E+00 0.118E+02   0.345E+00 0.324E+00 -.118E+02   -.113E-01 -.975E-02 -.184E-01
   -.259E+00 -.514E+00 0.108E+02   0.267E+00 0.520E+00 -.108E+02   -.693E-02 -.117E-01 -.995E-03
   0.207E-01 0.126E+00 0.980E+01   -.809E-02 -.131E+00 -.981E+01   -.126E-01 0.266E-03 0.956E-02
   0.709E-01 0.903E-01 0.990E+01   -.660E-01 -.949E-01 -.990E+01   -.146E-01 0.130E-01 -.160E-02
   -.247E+00 0.476E-01 0.997E+01   0.256E+00 -.517E-01 -.998E+01   -.340E-02 0.192E-02 0.972E-02
   -.216E+00 -.112E+00 0.992E+01   0.215E+00 0.113E+00 -.992E+01   -.405E-02 0.137E-02 0.432E-03
   -.397E+00 -.230E+00 0.999E+01   0.399E+00 0.235E+00 -.999E+01   0.367E-04 -.878E-02 0.516E-02
   -.268E+00 -.214E+00 0.974E+01   0.268E+00 0.224E+00 -.975E+01   -.283E-02 -.134E-01 0.854E-02
   -.251E+00 -.301E+00 0.987E+01   0.254E+00 0.315E+00 -.988E+01   -.782E-02 -.167E-01 0.521E-02
   -.292E-01 -.898E-01 0.965E+01   0.363E-01 0.975E-01 -.966E+01   -.625E-02 -.118E-01 0.903E-02
   0.101E+00 0.246E+00 0.956E+01   -.103E+00 -.240E+00 -.957E+01   -.316E-02 -.819E-02 0.858E-02
   0.301E+00 0.426E+00 0.995E+01   -.300E+00 -.428E+00 -.996E+01   -.283E-03 -.907E-04 0.877E-02
   0.358E-01 0.391E+00 0.969E+01   -.427E-01 -.388E+00 -.970E+01   0.152E-01 -.674E-02 0.377E-02
   0.812E-02 0.546E+00 0.104E+02   -.191E-01 -.547E+00 -.104E+02   0.893E-02 0.163E-02 0.611E-02
   -.875E-01 0.141E+00 0.101E+02   0.825E-01 -.143E+00 -.101E+02   0.138E-01 -.435E-02 -.124E-03
   -.260E+00 0.359E+00 0.103E+02   0.251E+00 -.357E+00 -.103E+02   0.553E-02 -.134E-02 -.252E-02
   -.933E-01 -.178E+00 0.102E+02   0.101E+00 0.177E+00 -.102E+02   -.496E-02 -.279E-02 0.484E-02
   -.155E+00 0.540E-01 0.978E+01   0.162E+00 -.514E-01 -.978E+01   -.160E-01 0.217E-02 -.389E-02
   0.125E-01 -.955E-01 0.977E+01   -.315E-02 0.100E+00 -.977E+01   -.103E-01 -.104E-01 0.783E-02
   0.175E+00 0.124E+00 0.972E+01   -.167E+00 -.122E+00 -.973E+01   -.162E-01 0.216E-02 0.526E-02
   -.139E-02 0.239E-01 -.134E+03   0.529E-03 -.264E-01 0.134E+03   -.170E-01 0.162E-01 -.343E-02
   -.228E+03 0.155E+03 -.214E+03   0.279E+03 -.190E+03 0.217E+03   -.527E+02 0.359E+02 -.354E+01
   0.228E+03 -.155E+03 -.192E+03   -.279E+03 0.190E+03 0.189E+03   0.528E+02 -.359E+02 0.318E+01
 -----------------------------------------------------------------------------------------------
   -.194E-01 0.458E-02 0.375E+00   0.114E-12 -.114E-12 0.341E-12   0.925E-02 0.274E-01 -.367E+00
 
 
 POSITION                                       TOTAL-FORCE (eV/Angst)
 -----------------------------------------------------------------------------------
     11.98348      0.00342      0.01417        -0.006506      0.005796     -0.000605
     -0.34154      1.42665      0.01100        -0.013423      0.018355     -0.002610
      2.12355      0.00315      0.01249         0.009733      0.018058     -0.006371
      2.12326      1.42653      0.00641         0.028556      0.019482     -0.007406
     10.75099      2.13819      0.01213        -0.007414      0.016142      0.000253
     -1.57382      3.56123      0.01110        -0.026495      0.013708     -0.002392
      0.89078      2.13854      0.00548         0.010525      0.010557      0.003510
      0.89099      3.56147      0.00181        -0.010630      0.011260      0.014032
      4.58864      0.00346      0.01135         0.025969     -0.018452     -0.003019
      4.58894      1.42623      0.00646         0.002989      0.028731      0.014652
      9.51854      4.27281      0.01369         0.016337      0.000901     -0.001033
     -2.80632      5.69591      0.01434        -0.006250     -0.017133     -0.000240
      2.12300      4.27302      0.00000         0.023938      0.015853      0.023245
      2.12335      5.69594      0.00581         0.004201      0.004815     -0.001009
      7.05344      0.00333      0.01399         0.008587     -0.015608     -0.001525
      7.05353      1.42635      0.01368        -0.003126      0.014052     -0.006634
      8.28610      6.40752      0.01601         0.017626     -0.021053     -0.000621
     -4.03885      7.83070      0.01636         0.007179     -0.018712      0.000212
      3.35586      6.40753      0.01007        -0.014689     -0.011448     -0.002947
      3.35599      7.83072      0.01320        -0.017897     -0.008256      0.000150
     -0.34146      4.27290      0.00723         0.000527      0.019607     -0.005732
     -0.34138      5.69591      0.00946        -0.012833      0.003699      0.000409
      3.35624      2.13791      0.00222        -0.005785      0.033572      0.018158
      3.35573      3.56155      0.00139         0.033099     -0.008518      0.010204
     -1.57395      6.40758      0.01311         0.025225     -0.014890     -0.002293
     -1.57385      7.83068      0.01438         0.009574     -0.002828      0.000522
      5.82093      2.13784      0.01033         0.020283      0.007149     -0.001379
      5.82114      3.56097      0.01156         0.000882      0.001947     -0.007031
      0.89092      6.40755      0.00907         0.004351      0.000077     -0.004617
      0.89106      7.83068      0.01235        -0.007534      0.008686      0.001484
      4.58871      4.27293      0.00850        -0.024483     -0.003438     -0.012003
      4.58852      5.69606      0.01149         0.001349     -0.024495     -0.005218
      9.51845      0.00337      0.01490        -0.017008     -0.006305      0.000347
      9.51855      1.42644      0.01438        -0.030549      0.020156     -0.001006
      8.28593      2.13803      0.01453         0.002585     -0.000174      0.001539
      8.28613      3.56115      0.01464        -0.012957     -0.003950     -0.002618
      7.05356      4.27269      0.01457         0.003584     -0.008348      0.000132
      7.05362      5.69588      0.01553        -0.002130     -0.028680     -0.000857
      5.82112      6.40755      0.01489        -0.015681     -0.018052      0.000132
      5.82102      7.83073      0.01579        -0.005026     -0.020035      0.000310
      7.05363      8.54227      0.01631        -0.003464     -0.010924      0.001524
     -5.27149      9.96549      0.01495         0.001619     -0.001337     -0.002102
     -2.80638      8.54234      0.01558         0.028284     -0.015011     -0.000694
     -2.80627      9.96553      0.01362         0.016509      0.004139     -0.003529
     -0.34149      8.54239      0.01378         0.023030     -0.017264     -0.001609
     -0.34138      9.96550      0.01354         0.010714      0.010303     -0.002599
      2.12343      8.54232      0.01336        -0.012709     -0.014077     -0.000936
      2.12354      9.96544      0.01469        -0.023631      0.013533     -0.002867
      4.58846      8.54235      0.01505        -0.019591     -0.016473      0.001834
      4.58853      9.96550      0.01517        -0.024367      0.006885      0.000902
      3.04930      2.68154      9.43874        -0.034490      0.022683      0.040837
      4.02070      2.02068      9.50316        -1.661517      1.106766     -0.122396
      2.07767      3.34267      9.37929         1.682929     -1.111450      0.081512
 -----------------------------------------------------------------------------------
    total drift:                               -0.010108      0.031931      0.007971


--------------------------------------------------------------------------------------------------------



  FREE ENERGIE OF THE ION-ELECTRON SYSTEM (eV)
  ---------------------------------------------------
  free  energy   TOTEN  =      -531.06710474 eV

  energy  without entropy=     -531.06710474  energy(sigma->0) =     -531.06710474
 


--------------------------------------------------------------------------------------------------------


    POTLOK:  cpu time    2.2100: real time    2.2212


--------------------------------------------------------------------------------------------------------


 writing wavefunctions
     LOOP+:  cpu time  871.8373: real time  879.4403
    4ORBIT:  cpu time    0.0000: real time    0.0000

 total amount of memory used by VASP MPI-rank0   698619. kBytes
=======================================================================

   base      :      30000. kBytes
   nonl-proj :     230539. kBytes
   fftplans  :      40716. kBytes
   grid      :     363125. kBytes
   one-center:        162. kBytes
   wavefun   :      34077. kBytes
 
  
  
 General timing and accounting informations for this job:
 ========================================================
  
                  Total CPU time used (sec):      920.222
                            User time (sec):      894.901
                          System time (sec):       25.321
                         Elapsed time (sec):      929.270
  
                   Maximum memory used (kb):     1230140.
                   Average memory used (kb):          N/A
  
                          Minor page faults:       188812
                          Major page faults:           90
                 Voluntary context switches:         3716
