 vasp.6.2.1 16May21 (build Nov 06 2021 14:46:37) complex                        
  
 executed on             LinuxIFC date 2025.03.03  19:24:51
 running on  112 total cores
 distrk:  each k-point on   56 cores,    2 groups
 distr:  one band on NCORE=   1 cores,   56 groups


--------------------------------------------------------------------------------------------------------


 INCAR:
   ALGO = Conjugate
   KPAR = 2
   NCORE = 32
   ISMEAR = 0
   SIGMA = 0.01
   PREC = Accurate
   EDIFF = 1E-7
   ENCUT = 1000
   ISIF = 0
   METAGGA = SCAN
   LASPH = .TRUE.
   SYMPREC = 1E-7

 POTCAR:    PAW_PBE C_h 06Feb2004                 
 POTCAR:    PAW_PBE O_h 06Feb2004                 
 -----------------------------------------------------------------------------
|                                                                             |
|           W    W    AA    RRRRR   N    N  II  N    N   GGGG   !!!           |
|           W    W   A  A   R    R  NN   N  II  NN   N  G    G  !!!           |
|           W    W  A    A  R    R  N N  N  II  N N  N  G       !!!           |
|           W WW W  AAAAAA  RRRRR   N  N N  II  N  N N  G  GGG   !            |
|           WW  WW  A    A  R   R   N   NN  II  N   NN  G    G                |
|           W    W  A    A  R    R  N    N  II  N    N   GGGG   !!!           |
|                                                                             |
|     The value NCORE = 32 specified in the INCAR file was overwritten,       |
|     because it was not compatible with the 56 processes available:          |
|     NCORE = 1                                                               |
|     was used instead, please check that this makes sense for your           |
|     machine.                                                                |
|                                                                             |
 -----------------------------------------------------------------------------

 -----------------------------------------------------------------------------
|                                                                             |
|           W    W    AA    RRRRR   N    N  II  N    N   GGGG   !!!           |
|           W    W   A  A   R    R  NN   N  II  NN   N  G    G  !!!           |
|           W    W  A    A  R    R  N N  N  II  N N  N  G       !!!           |
|           W WW W  AAAAAA  RRRRR   N  N N  II  N  N N  G  GGG   !            |
|           WW  WW  A    A  R   R   N   NN  II  N   NN  G    G                |
|           W    W  A    A  R    R  N    N  II  N    N   GGGG   !!!           |
|                                                                             |
|     For optimal performance we recommend to set                             |
|       NCORE = 2 up to number-of-cores-per-socket                            |
|     NCORE specifies how many cores store one orbital (NPAR=cpu/NCORE).      |
|     This setting can greatly improve the performance of VASP for DFT.       |
|     The default, NCORE=1 might be grossly inefficient on modern             |
|     multi-core architectures or massively parallel machines. Do your        |
|     own testing! More info at https://www.vasp.at/wiki/index.php/NCORE      |
|     Unfortunately you need to use the default for GW and RPA                |
|     calculations (for HF NCORE is supported but not extensively tested      |
|     yet).                                                                   |
|                                                                             |
 -----------------------------------------------------------------------------

 POTCAR:    PAW_PBE C_h 06Feb2004                 
   VRHFIN =C: s2p2                                                                                  
   LEXCH  = PE                                                                                      
   EATOM  =   147.1560 eV,   10.8157 Ry                                                             
                                                                                                    
   TITEL  = PAW_PBE C_h 06Feb2004                                                                   
   LULTRA =        F    use ultrasoft PP ?                                                          
   IUNSCR =        1    unscreen: 0-lin 1-nonlin 2-no                                               
   RPACOR =    0.800    partial core radius                                                         
   POMASS =   12.011; ZVAL   =    4.000    mass and valenz                                          
   RCORE  =    1.100    outmost cutoff radius                                                       
   RWIGS  =    1.630; RWIGS  =    0.863    wigner-seitz radius (au A)                               
   ENMAX  =  700.000; ENMIN  =  500.000 eV                                                          
   ICORE  =        2    local potential                                                             
   LCOR   =        T    correct aug charges                                                         
   LPAW   =        T    paw PP                                                                      
   EAUG   =  946.768                                                                                
   DEXC   =    0.000                                                                                
   RMAX   =    1.128    core radius for proj-oper                                                   
   RAUG   =    1.300    factor for augmentation sphere                                              
   RDEP   =    1.162    radius for radial grids                                                     
   RDEPT  =    1.088    core radius for aug-charge                                                  
                                                                                                    
   Atomic configuration                                                                             
    4 entries                                                                                       
     n  l   j            E        occ.                                                              
     1  0  0.50      -273.3789   2.0000                                                             
     2  0  0.50       -13.7508   2.0000                                                             
     2  1  0.50        -5.2854   2.0000                                                             
     3  2  1.50        -5.4423   0.0000                                                             
   Description                                                                                      
     l       E           TYP  RCUT    TYP  RCUT                                                     
     0    -13.7508458     23  1.100                                                                 
     0     -8.2022199     23  1.100                                                                 
     1     -5.2854383     23  1.100                                                                 
     1      1.1560700     23  1.100                                                                 
     2     -5.4423304      7  1.100                                                                 
  local pseudopotential read in
  partial core-charges read in
  partial kinetic energy density read in
  atomic valenz-charges read in
  non local Contribution for L=           0  read in
    real space projection operators read in
  non local Contribution for L=           0  read in
    real space projection operators read in
  non local Contribution for L=           1  read in
    real space projection operators read in
  non local Contribution for L=           1  read in
    real space projection operators read in
    PAW grid and wavefunctions read in
 
   number of l-projection  operators is LMAX  =           4
   number of lm-projection operators is LMMAX =           8
 
 POTCAR:    PAW_PBE O_h 06Feb2004                 
   VRHFIN =O: s2p4                                                                                  
   LEXCH  = PE                                                                                      
   EATOM  =   432.3788 eV,   31.7789 Ry                                                             
                                                                                                    
   TITEL  = PAW_PBE O_h 06Feb2004                                                                   
   LULTRA =        F    use ultrasoft PP ?                                                          
   IUNSCR =        1    unscreen: 0-lin 1-nonlin 2-no                                               
   RPACOR =    0.800    partial core radius                                                         
   POMASS =   16.000; ZVAL   =    6.000    mass and valenz                                          
   RCORE  =    1.100    outmost cutoff radius                                                       
   RWIGS  =    1.400; RWIGS  =    0.741    wigner-seitz radius (au A)                               
   ENMAX  =  700.000; ENMIN  =  500.000 eV                                                          
   ICORE  =        2    local potential                                                             
   LCOR   =        T    correct aug charges                                                         
   LPAW   =        T    paw PP                                                                      
   EAUG   =  888.804                                                                                
   DEXC   =    0.000                                                                                
   RMAX   =    1.128    core radius for proj-oper                                                   
   RAUG   =    1.300    factor for augmentation sphere                                              
   RDEP   =    1.125    radius for radial grids                                                     
   RDEPT  =    1.088    core radius for aug-charge                                                  
                                                                                                    
   Atomic configuration                                                                             
    4 entries                                                                                       
     n  l   j            E        occ.                                                              
     1  0  0.50      -514.6923   2.0000                                                             
     2  0  0.50       -23.9615   2.0000                                                             
     2  1  0.50        -9.0305   4.0000                                                             
     3  2  1.50        -9.5241   0.0000                                                             
   Description                                                                                      
     l       E           TYP  RCUT    TYP  RCUT                                                     
     0    -23.9615319     23  1.100                                                                 
     0    -25.3221145     23  1.100                                                                 
     1     -9.0304911     23  1.100                                                                 
     1     -5.4802209     23  1.100                                                                 
     2     -9.5240782      7  1.100                                                                 
  local pseudopotential read in
  partial core-charges read in
  partial kinetic energy density read in
  atomic valenz-charges read in
  non local Contribution for L=           0  read in
    real space projection operators read in
  non local Contribution for L=           0  read in
    real space projection operators read in
  non local Contribution for L=           1  read in
    real space projection operators read in
  non local Contribution for L=           1  read in
    real space projection operators read in
    PAW grid and wavefunctions read in
 
   number of l-projection  operators is LMAX  =           4
   number of lm-projection operators is LMMAX =           8
 
 -----------------------------------------------------------------------------
|                                                                             |
|               ----> ADVICE to this user running VASP <----                  |
|                                                                             |
|     You have a (more or less) 'large supercell' and for larger cells it     |
|     might be more efficient to use real-space projection operators.         |
|     Therefore, try LREAL= Auto in the INCAR file.                           |
|     Mind: For very accurate calculation, you might also keep the            |
|     reciprocal projection scheme (i.e. LREAL=.FALSE.).                      |
|                                                                             |
 -----------------------------------------------------------------------------

  PAW_PBE C_h 06Feb2004                 :
 energy of atom  1       EATOM= -147.1560
 kinetic energy error for atom=    0.0031 (will be added to EATOM!!)
  PAW_PBE O_h 06Feb2004                 :
 energy of atom  2       EATOM= -432.3788
 kinetic energy error for atom=    0.0171 (will be added to EATOM!!)
 
 
 POSCAR:  C  O
  positions in cartesian coordinates
  No initial velocities read in

 METAGGA = SCAN     LMAXTAU =  6    LMIXTAU =  F

 exchange correlation table for  LEXCH =        8
   RHO(1)=    0.500       N(1)  =     2000
   RHO(2)=  100.500       N(2)  =     4000
 


--------------------------------------------------------------------------------------------------------


 ion  position               nearest neighbor table
   1  0.972  0.000  0.001-  50 1.42   2 1.42  42 1.42
   2  0.039  0.134  0.001-   5 1.42   7 1.42   1 1.42
   3  0.172  0.000  0.001-  42 1.42  44 1.42   4 1.42
   4  0.239  0.134  0.000-   7 1.42   3 1.42  23 1.42
   5  0.972  0.200  0.001-   6 1.42   2 1.42  34 1.42
   6  0.039  0.334  0.001-   5 1.42  21 1.42  11 1.42
   7  0.172  0.200  0.000-   8 1.42   2 1.42   4 1.42
   8  0.239  0.334  0.000-  13 1.42   7 1.42  21 1.42
   9  0.372  0.000  0.001-  10 1.42  44 1.42  46 1.42
  10  0.439  0.134  0.000-  27 1.42   9 1.42  23 1.42
  11  0.972  0.400  0.001-  12 1.42  36 1.42   6 1.42
  12  0.039  0.534  0.001-  25 1.42  11 1.42  17 1.42
  13  0.372  0.400  0.000-   8 1.42  14 1.42  24 1.42
  14  0.439  0.534  0.000-  13 1.42  29 1.42  19 1.42
  15  0.572  0.000  0.001-  46 1.42  16 1.42  48 1.42
  16  0.639  0.134  0.001-  15 1.42  35 1.42  27 1.42
  17  0.972  0.600  0.001-  38 1.42  18 1.42  12 1.42
  18  0.039  0.734  0.001-  43 1.42  41 1.42  17 1.42
  19  0.572  0.600  0.001-  14 1.42  20 1.42  32 1.42
  20  0.639  0.734  0.001-  49 1.42  19 1.42  47 1.42
  21  0.172  0.400  0.000-  22 1.42   8 1.42   6 1.42
  22  0.239  0.534  0.000-  21 1.42  29 1.42  25 1.42
  23  0.372  0.200  0.000-  10 1.42   4 1.42  24 1.42
  24  0.439  0.334  0.000-  13 1.42  31 1.42  23 1.42
  25  0.172  0.600  0.001-  26 1.42  12 1.42  22 1.42
  26  0.239  0.734  0.001-  25 1.42  45 1.42  43 1.42
  27  0.572  0.200  0.001-  10 1.42  28 1.42  16 1.42
  28  0.639  0.334  0.001-  27 1.42  37 1.42  31 1.42
  29  0.372  0.600  0.000-  22 1.42  14 1.42  30 1.42
  30  0.439  0.734  0.001-  47 1.42  29 1.42  45 1.42
  31  0.572  0.400  0.000-  32 1.42  28 1.42  24 1.42
  32  0.639  0.534  0.001-  31 1.42  39 1.42  19 1.42
  33  0.772  0.000  0.001-  34 1.42  48 1.42  50 1.42
  34  0.839  0.134  0.001-  33 1.42   5 1.42  35 1.42
  35  0.772  0.200  0.001-  36 1.42  16 1.42  34 1.42
  36  0.839  0.334  0.001-  35 1.42  11 1.42  37 1.42
  37  0.772  0.400  0.001-  28 1.42  38 1.42  36 1.42
  38  0.839  0.534  0.001-  17 1.42  37 1.42  39 1.42
  39  0.772  0.600  0.001-  40 1.42  38 1.42  32 1.42
  40  0.839  0.734  0.001-  39 1.42  49 1.42  41 1.42
  41  0.972  0.800  0.001-  18 1.42  42 1.42  40 1.42
  42  0.039  0.934  0.001-   3 1.42  41 1.42   1 1.42
  43  0.172  0.800  0.001-  18 1.42  44 1.42  26 1.42
  44  0.239  0.934  0.001-   9 1.42  43 1.42   3 1.42
  45  0.372  0.800  0.001-  26 1.42  46 1.42  30 1.42
  46  0.439  0.934  0.001-  15 1.42  45 1.42   9 1.42
  47  0.572  0.800  0.001-  30 1.42  48 1.42  20 1.42
  48  0.639  0.934  0.001-  47 1.42  33 1.42  15 1.42
  49  0.772  0.800  0.001-  50 1.42  20 1.42  40 1.42
  50  0.839  0.934  0.001-  49 1.42   1 1.42  33 1.42
  51  0.373  0.251  0.223-  52 1.18  53 1.18
  52  0.421  0.189  0.226-  51 1.18
  53  0.325  0.313  0.220-  51 1.18
 
  LATTYP: Found a hexagonal cell.
 ALAT       =    12.3250000000
 C/A-ratio  =     1.6227180527
  
  Lattice vectors:
  
 A1 = (  12.3250000000,   0.0000000000,   0.0000000000)
 A2 = (  -6.1625000000,  10.6737631016,   0.0000000000)
 A3 = (   0.0000000000,   0.0000000000,  20.0000000000)


Analysis of symmetry for initial positions (statically):
=====================================================================
 Subroutine PRICEL returns:
 Original cell was already a primitive cell.
 

 Routine SETGRP: Setting up the symmetry group for a 
 hexagonal supercell.


 Subroutine GETGRP returns: Found  1 space group operations
 (whereof  1 operations were pure point group operations)
 out of a pool of 24 trial point group operations.


The static configuration has the point symmetry C_1 .


Analysis of symmetry for dynamics (positions and initial velocities):
=====================================================================
 Subroutine PRICEL returns:
 Original cell was already a primitive cell.
 

 Routine SETGRP: Setting up the symmetry group for a 
 hexagonal supercell.


 Subroutine GETGRP returns: Found  1 space group operations
 (whereof  1 operations were pure point group operations)
 out of a pool of 24 trial point group operations.


The dynamic configuration has the point symmetry C_1 .


 Subroutine INISYM returns: Found  1 space group operations
 (whereof  1 operations are pure point group operations),
 and found     1 'primitive' translations


----------------------------------------------------------------------------------------

                                     Primitive cell                                     

  volume of cell :    2631.0826

  direct lattice vectors                    reciprocal lattice vectors
    12.325000000  0.000000000  0.000000000     0.081135903  0.046843835  0.000000000
    -6.162500000 10.673763102  0.000000000     0.000000000  0.093687670  0.000000000
     0.000000000  0.000000000 20.000000000     0.000000000  0.000000000  0.050000000

  length of vectors
    12.325000000 12.325000000 20.000000000     0.093687670  0.093687670  0.050000000

  position of ions in fractional coordinates (direct lattice)
     0.972450841  0.000320818  0.000708389
     0.039118382  0.133659505  0.000550216
     0.172443627  0.000295449  0.000624535
     0.239096278  0.133647917  0.000320585
     0.972452058  0.200322012  0.000606523
     0.039128360  0.333643771  0.000555187
     0.172451764  0.200354552  0.000273959
     0.239124359  0.333665720  0.000090325
     0.372465565  0.000324403  0.000567391
     0.439137473  0.133619939  0.000322923
     0.972449824  0.400309362  0.000684513
     0.039124981  0.533636789  0.000716763
     0.372416176  0.400329481  0.000000000
     0.439099602  0.533638981  0.000290518
     0.572443676  0.000312125  0.000699475
     0.639110207  0.133631751  0.000684093
     0.972452703  0.600305653  0.000800361
     0.039124495  0.733640359  0.000818141
     0.572433471  0.600306242  0.000503618
     0.639111888  0.733641879  0.000659881
     0.172454630  0.400318228  0.000361306
     0.239120185  0.533636548  0.000473136
     0.372459750  0.200295993  0.000111246
     0.439107096  0.333673419  0.000069702
     0.172452155  0.600311506  0.000655425
     0.239123371  0.733638574  0.000718912
     0.572431082  0.200289171  0.000516621
     0.639112773  0.333618630  0.000577970
     0.372439808  0.600308022  0.000453556
     0.439116090  0.733637858  0.000617737
     0.572469358  0.400320504  0.000424897
     0.639119408  0.533650873  0.000574513
     0.772445723  0.000315427  0.000745201
     0.839116277  0.133640203  0.000719132
     0.772440513  0.200307432  0.000726291
     0.839120241  0.333635728  0.000731834
     0.772446320  0.400298367  0.000728722
     0.839118980  0.533633964  0.000776376
     0.772456143  0.600308173  0.000744639
     0.839115033  0.733643180  0.000789390
     0.972455313  0.800305582  0.000815291
     0.039114714  0.933643289  0.000747563
     0.172457971  0.800312211  0.000779216
     0.239134551  0.933647193  0.000681063
     0.372451396  0.800316674  0.000689249
     0.439124489  0.933644769  0.000676788
     0.572441101  0.800310054  0.000668168
     0.639115067  0.933638985  0.000734556
     0.772445098  0.800313187  0.000752577
     0.839116614  0.933644338  0.000758538
     0.373021009  0.251226878  0.222724679
     0.420879805  0.189313152  0.225945772
     0.325156981  0.313167186  0.219751936

  ion indices of the primitive-cell ions
   primitive index   ion index
                 1           1
                 2           2
                 3           3
                 4           4
                 5           5
                 6           6
                 7           7
                 8           8
                 9           9
                10          10
                11          11
                12          12
                13          13
                14          14
                15          15
                16          16
                17          17
                18          18
                19          19
                20          20
                21          21
                22          22
                23          23
                24          24
                25          25
                26          26
                27          27
                28          28
                29          29
                30          30
                31          31
                32          32
                33          33
                34          34
                35          35
                36          36
                37          37
                38          38
                39          39
                40          40
                41          41
                42          42
                43          43
                44          44
                45          45
                46          46
                47          47
                48          48
                49          49
                50          50
                51          51
                52          52
                53          53

----------------------------------------------------------------------------------------

 
 
 KPOINTS: auto                                    

Automatic generation of k-mesh.
 Grid dimensions read from file:
 generate k-points for:    1    1    1

 Generating k-lattice:

  Cartesian coordinates                     Fractional coordinates (reciprocal lattice)
     0.081135903  0.046843835  0.000000000     1.000000000 -0.000000000  0.000000000
     0.000000000  0.093687670  0.000000000     0.000000000  1.000000000  0.000000000
     0.000000000  0.000000000  0.050000000     0.000000000  0.000000000  1.000000000

  Length of vectors
     0.093687670  0.093687670  0.050000000

  Shift w.r.t. Gamma in fractional coordinates (k-lattice)
     0.000000000  0.000000000  0.000000000

 
 Subroutine IBZKPT returns following result:
 ===========================================
 
 Found      1 irreducible k-points:
 
 Following reciprocal coordinates:
            Coordinates               Weight
  0.000000  0.000000  0.000000      1.000000
 
 Following cartesian coordinates:
            Coordinates               Weight
  0.000000  0.000000  0.000000      1.000000
 


--------------------------------------------------------------------------------------------------------




 Dimension of arrays:
   k-points           NKPTS =      1   k-points in BZ     NKDIM =      1   number of bands    NBANDS=    168
   number of dos      NEDOS =    301   number of ions     NIONS =     53
   non local maximal  LDIM  =      4   non local SUM 2l+1 LMDIM =      8
   total plane-waves  NPLWV = ******
   max r-space proj   IRMAX =      1   max aug-charges    IRDMAX=   9736
   dimension x,y,z NGX =   128 NGY =  128 NGZ =  210
   dimension x,y,z NGXF=   256 NGYF=  256 NGZF=  420
   support grid    NGXF=   256 NGYF=  256 NGZF=  420
   ions per type =              51   2
   NGX,Y,Z   is equivalent  to a cutoff of  17.27, 17.27, 17.46 a.u.
   NGXF,Y,Z  is equivalent  to a cutoff of  34.53, 34.53, 34.91 a.u.

 SYSTEM =  unknown system                          
 POSCAR =   C  O                                   

 Startparameter for this run:
   NWRITE =      2    write-flag & timer
   PREC   = accura    normal or accurate (medium, high low for compatibility)
   ISTART =      0    job   : 0-new  1-cont  2-samecut
   ICHARG =      2    charge: 1-file 2-atom 10-const
   ISPIN  =      1    spin polarized calculation?
   LNONCOLLINEAR =      F non collinear calculations
   LSORBIT =      F    spin-orbit coupling
   INIWAV =      1    electr: 0-lowe 1-rand  2-diag
   LASPH  =      T    aspherical Exc in radial PAW
 Electronic Relaxation 1
   ENCUT  = 1000.0 eV  73.50 Ry    8.57 a.u.  31.78 31.78 51.57*2*pi/ulx,y,z
   ENINI  = 1000.0     initial cutoff
   ENAUG  =  946.8 eV  augmentation charge cutoff
   NELM   =     60;   NELMIN=  2; NELMDL= -5     # of ELM steps 
   EDIFF  = 0.1E-06   stopping-criterion for ELM
   LREAL  =      F    real-space projection
   NLSPLINE    = F    spline interpolate recip. space projectors
   LCOMPAT=      F    compatible to vasp.4.4
   GGA_COMPAT  = T    GGA compatible to vasp.4.4-vasp.4.6
   LMAXPAW     = -100 max onsite density
   LMAXMIX     =    2 max onsite mixed and CHGCAR
   VOSKOWN=      0    Vosko Wilk Nusair interpolation
   ROPT   =    0.00000   0.00000
 Ionic relaxation
   EDIFFG = 0.1E-05   stopping-criterion for IOM
   NSW    =      0    number of steps for IOM
   NBLOCK =      1;   KBLOCK =      1    inner block; outer block 
   IBRION =     -1    ionic relax: 0-MD 1-quasi-New 2-CG
   NFREE  =      0    steps in history (QN), initial steepest desc. (CG)
   ISIF   =      0    stress and relaxation
   IWAVPR =     10    prediction:  0-non 1-charg 2-wave 3-comb
   ISYM   =      2    0-nonsym 1-usesym 2-fastsym
   LCORR  =      T    Harris-Foulkes like correction to forces

   POTIM  = 0.5000    time-step for ionic-motion
   TEIN   =    0.0    initial temperature
   TEBEG  =    0.0;   TEEND  =   0.0 temperature during run
   SMASS  =  -3.00    Nose mass-parameter (am)
   estimated Nose-frequenzy (Omega)   =  0.10E-29 period in steps = 0.13E+47 mass=  -0.347E-26a.u.
   SCALEE = 1.0000    scale energy and forces
   NPACO  =    256;   APACO  = 16.0  distance and # of slots for P.C.
   PSTRESS=    0.0 pullay stress

  Mass of Ions in am
   POMASS =  12.01 16.00
  Ionic Valenz
   ZVAL   =   4.00  6.00
  Atomic Wigner-Seitz radii
   RWIGS  =  -1.00 -1.00
  virtual crystal weights 
   VCA    =   1.00  1.00
   NELECT =     216.0000    total number of electrons
   NUPDOWN=      -1.0000    fix difference up-down

 DOS related values:
   EMIN   =  10.00;   EMAX   =-10.00  energy-range for DOS
   EFERMI =   0.00
   ISMEAR =     0;   SIGMA  =   0.01  broadening in eV -4-tet -1-fermi 0-gaus

 Electronic relaxation 2 (details)
   IALGO  =     58    algorithm
   LDIAG  =      T    sub-space diagonalisation (order eigenvalues)
   LSUBROT=      F    optimize rotation matrix (better conditioning)
   TURBO    =      0    0=normal 1=particle mesh
   IRESTART =      0    0=no restart 2=restart with 2 vectors
   NREBOOT  =      0    no. of reboots
   NMIN     =      0    reboot dimension
   EREF     =   0.00    reference energy to select bands
   IMIX   =      4    mixing-type and parameters
     AMIX     =   0.40;   BMIX     =  1.00
     AMIX_MAG =   1.60;   BMIX_MAG =  1.00
     AMIN     =   0.10
     WC   =   100.;   INIMIX=   1;  MIXPRE=   1;  MAXMIX= -45

 Intra band minimization:
   WEIMIN = 0.0000     energy-eigenvalue tresh-hold
   EBREAK =  0.15E-09  absolut break condition
   DEPER  =   0.30     relativ break condition  

   TIME   =   0.40     timestep for ELM

  volume/ion in A,a.u.               =      49.64       335.01
  Fermi-wavevector in a.u.,A,eV,Ry     =   0.711510  1.344560  6.887909  0.506247
  Thomas-Fermi vector in A             =   1.798641
 
 Write flags
   LWAVE        =      T    write WAVECAR
   LDOWNSAMPLE  =      F    k-point downsampling of WAVECAR
   LCHARG       =      T    write CHGCAR
   LVTOT        =      F    write LOCPOT, total local potential
   LVHAR        =      F    write LOCPOT, Hartree potential only
   LELF         =      F    write electronic localiz. function (ELF)
   LORBIT       =      0    0 simple, 1 ext, 2 COOP (PROOUT), +10 PAW based schemes


 Dipole corrections
   LMONO  =      F    monopole corrections only (constant potential shift)
   LDIPOL =      F    correct potential (dipole corrections)
   IDIPOL =      0    1-x, 2-y, 3-z, 4-all directions 
   EPSILON=  1.0000000 bulk dielectric constant

 Exchange correlation treatment:
   GGA     =    --    GGA type
   LEXCH   =     8    internal setting for exchange type
   VOSKOWN=      0    Vosko Wilk Nusair interpolation
   LHFCALC =     F    Hartree Fock is set to
   LHFONE  =     F    Hartree Fock one center treatment
   AEXX    =    0.0000 exact exchange contribution

 Linear response parameters
   LEPSILON=     F    determine dielectric tensor
   LRPA    =     F    only Hartree local field effects (RPA)
   LNABLA  =     F    use nabla operator in PAW spheres
   LVEL    =     F    velocity operator in full k-point grid
   LINTERFAST=   F  fast interpolation
   KINTER  =     0    interpolate to denser k-point grid
   CSHIFT  =0.1000    complex shift for real part using Kramers Kronig
   OMEGAMAX=  -1.0    maximum frequency
   DEG_THRESHOLD= 0.2000000E-02 threshold for treating states as degnerate
   RTIME   =   -0.100 relaxation time in fs
  (WPLASMAI=    0.000 imaginary part of plasma frequency in eV, 0.658/RTIME)
   DFIELD  = 0.0000000 0.0000000 0.0000000 field for delta impulse in time
 
 Orbital magnetization related:
   ORBITALMAG=     F  switch on orbital magnetization
   LCHIMAG   =     F  perturbation theory with respect to B field
   DQ        =  0.001000  dq finite difference perturbation B field
   LLRAUG    =     F  two centre corrections for induced B field



--------------------------------------------------------------------------------------------------------


 Static calculation
 charge density and potential will be updated during run
 non-spin polarized calculation
 Conjugate gradient for all bands (Freysoldt, et al. PRB 79, 241103 (2009))
 preconditioned conjugated gradient                                        
 perform sub-space diagonalisation
    before iterative eigenvector-optimisation
 modified Broyden-mixing scheme, WC =      100.0
 initial mixing is a Kerker type mixing with AMIX =  0.4000 and BMIX =      1.0000
 Hartree-type preconditioning will be used
 using additional bands           60
 reciprocal scheme for non local part
 use partial core corrections
 no Harris-corrections to forces 
 use gradient corrections 
 use of overlap-Matrix (Vanderbilt PP)
 Gauss-broadening in eV      SIGMA  =   0.01


--------------------------------------------------------------------------------------------------------


  energy-cutoff  :     1000.00
  volume of cell :     2631.08
      direct lattice vectors                 reciprocal lattice vectors
    12.325000000  0.000000000  0.000000000     0.081135903  0.046843835  0.000000000
    -6.162500000 10.673763102  0.000000000     0.000000000  0.093687670  0.000000000
     0.000000000  0.000000000 20.000000000     0.000000000  0.000000000  0.050000000

  length of vectors
    12.325000000 12.325000000 20.000000000     0.093687670  0.093687670  0.050000000


 
 k-points in units of 2pi/SCALE and weight: auto                                    
   0.00000000  0.00000000  0.00000000       1.000
 
 k-points in reciprocal lattice and weights: auto                                    
   0.00000000  0.00000000  0.00000000       1.000
 
 position of ions in fractional coordinates (direct lattice) 
   0.97245084  0.00032082  0.00070839
   0.03911838  0.13365950  0.00055022
   0.17244363  0.00029545  0.00062454
   0.23909628  0.13364792  0.00032058
   0.97245206  0.20032201  0.00060652
   0.03912836  0.33364377  0.00055519
   0.17245176  0.20035455  0.00027396
   0.23912436  0.33366572  0.00009033
   0.37246557  0.00032440  0.00056739
   0.43913747  0.13361994  0.00032292
   0.97244982  0.40030936  0.00068451
   0.03912498  0.53363679  0.00071676
   0.37241618  0.40032948  0.00000000
   0.43909960  0.53363898  0.00029052
   0.57244368  0.00031213  0.00069947
   0.63911021  0.13363175  0.00068409
   0.97245270  0.60030565  0.00080036
   0.03912449  0.73364036  0.00081814
   0.57243347  0.60030624  0.00050362
   0.63911189  0.73364188  0.00065988
   0.17245463  0.40031823  0.00036131
   0.23912018  0.53363655  0.00047314
   0.37245975  0.20029599  0.00011125
   0.43910710  0.33367342  0.00006970
   0.17245216  0.60031151  0.00065542
   0.23912337  0.73363857  0.00071891
   0.57243108  0.20028917  0.00051662
   0.63911277  0.33361863  0.00057797
   0.37243981  0.60030802  0.00045356
   0.43911609  0.73363786  0.00061774
   0.57246936  0.40032050  0.00042490
   0.63911941  0.53365087  0.00057451
   0.77244572  0.00031543  0.00074520
   0.83911628  0.13364020  0.00071913
   0.77244051  0.20030743  0.00072629
   0.83912024  0.33363573  0.00073183
   0.77244632  0.40029837  0.00072872
   0.83911898  0.53363396  0.00077638
   0.77245614  0.60030817  0.00074464
   0.83911503  0.73364318  0.00078939
   0.97245531  0.80030558  0.00081529
   0.03911471  0.93364329  0.00074756
   0.17245797  0.80031221  0.00077922
   0.23913455  0.93364719  0.00068106
   0.37245140  0.80031667  0.00068925
   0.43912449  0.93364477  0.00067679
   0.57244110  0.80031005  0.00066817
   0.63911507  0.93363899  0.00073456
   0.77244510  0.80031319  0.00075258
   0.83911661  0.93364434  0.00075854
   0.37302101  0.25122688  0.22272468
   0.42087980  0.18931315  0.22594577
   0.32515698  0.31316719  0.21975194
 
 position of ions in cartesian coordinates  (Angst):
  11.98347958  0.00342433  0.01416777
  -0.34154264  1.42664989  0.01100432
   2.12354700  0.00315355  0.01249070
   2.12325634  1.42652621  0.00641170
  10.75098721  2.13818970  0.01213047
  -1.57382270  3.56123457  0.01110375
   0.89078307  2.13853702  0.00547917
   0.89099273  3.56146885  0.00180651
   4.58863896  0.00346260  0.01134782
   4.58893648  1.42622757  0.00645846
   9.51853763  4.27280730  0.01369027
  -2.80632132  5.69591267  0.01433526
   2.12299894  4.27302204  0.00000000
   2.12335237  5.69593607  0.00581036
   7.05344483  0.00333155  0.01398950
   7.05352764  1.42635365  0.01368187
   8.28609598  6.40752033  0.01600723
  -4.03884931  7.83070339  0.01636283
   3.35585531  6.40752662  0.01007237
   3.35598594  7.83071962  0.01319763
  -0.34145776  4.27290193  0.00722612
  -0.34137895  5.69591010  0.00946273
   3.35624236  2.13791198  0.00222492
   3.35573251  3.56155103  0.00139405
  -1.57394684  6.40758280  0.01310850
  -1.57385216  7.83068434  0.01437823
   5.82093107  2.13783916  0.01033241
   5.82114012  3.56096622  0.01155939
   0.89092245  6.40754561  0.00907111
   0.89106251  7.83067670  0.01235474
   4.58870974  4.27292622  0.00849795
   4.58852320  5.69606300  0.01149026
   9.51844972  0.00336679  0.01490402
   9.51855036  1.42644387  0.01438264
   8.28593477  2.13803408  0.01452582
   8.28612680  3.56114872  0.01463668
   7.05356221  4.27268994  0.01457444
   7.05362213  5.69588251  0.01552751
   5.82112285  6.40754723  0.01489279
   5.82101669  7.83073350  0.01578780
   7.05362858  8.54227219  0.01630582
  -5.27148792  9.96548729  0.01495127
  -2.80637951  8.54234295  0.01558431
  -2.80626749  9.96552896  0.01362126
  -0.34148805  8.54239058  0.01378498
  -0.34137657  9.96550309  0.01353576
   2.12342586  8.54231992  0.01336337
   2.12354296  9.96544135  0.01469111
   4.58845581  8.54235337  0.01505154
   4.58852904  9.96549848  0.01517076
   3.04929830  2.68153618  4.45449359
   4.02070129  2.02068374  4.51891545
   2.07766701  3.34267235  4.39503872
 


--------------------------------------------------------------------------------------------------------


 k-point   1 :   0.0000 0.0000 0.0000  plane waves:  189031

 maximum and minimum number of plane-waves per node :    189031   189031

 maximum number of plane-waves:    189031
 maximum index in each direction: 
   IXMAX=   31   IYMAX=   31   IZMAX=   51
   IXMIN=  -31   IYMIN=  -31   IZMIN=  -51


 serial   3D FFT for wavefunctions
 parallel 3D FFT for charge:
    minimum data exchange during FFTs selected (reduces bandwidth)


 total amount of memory used by VASP MPI-rank0   556209. kBytes
=======================================================================

   base      :      30000. kBytes
   nonl-proj :     184518. kBytes
   fftplans  :      31725. kBytes
   grid      :     282516. kBytes
   one-center:        162. kBytes
   wavefun   :      27288. kBytes
 
     INWAV:  cpu time    0.0000: real time    0.0000
 Broyden mixing: mesh for mixing (old mesh)
   NGX = 63   NGY = 63   NGZ =103
  (NGX  =256   NGY  =256   NGZ  =420)
  gives a total of 408807 points

 initial charge density was supplied:
 charge density of overlapping atoms calculated
 number of electron     216.0000000 magnetization 
 keeping initial charge density in first step


--------------------------------------------------------------------------------------------------------


 Maximum index for augmentation-charges          459 (set IRDMAX)


--------------------------------------------------------------------------------------------------------


 First call to EWALD:  gamma=   0.128
 Maximum number of real-space cells 3x 3x 2
 Maximum number of reciprocal cells 3x 3x 4

    FEWALD:  cpu time    0.0037: real time    0.0037


--------------------------------------- Iteration      1(   1)  ---------------------------------------


    POTLOK:  cpu time    1.4650: real time    1.4764
    SETDIJ:  cpu time    0.2321: real time    0.2330
    TRIAL :  cpu time   21.7975: real time   21.9782
    CORREC:  cpu time    0.0006: real time    0.0006
    --------------------------------------------
      LOOP:  cpu time   23.5083: real time   23.7113

 eigenvalue-minimisations  :   336
 total energy-change (2. order) : 0.2413743E+04  (-0.1181103E+05)
 number of electron     216.0000000 magnetization 
 augmentation part      216.0000000 magnetization 

 Free energy of the ion-electron system (eV)
  ---------------------------------------------------
  alpha Z        PSCENC =        59.93625244
  Ewald energy   TEWEN  =     32604.61742785
  -Hartree energ DENC   =    -38780.03525284
  -exchange      EXHF   =         0.00000000
  -V(xc)+E(xc)   XCENC  =       602.84092912
  PAW double counting   =      6339.73130699    -6197.22120962
  entropy T*S    EENTRO =        -0.00000000
  eigenvalues    EBANDS =      -585.65021786
  atomic energy  EATOM  =      8369.52358910
  ---------------------------------------------------
  free energy    TOTEN  =      2413.74282518 eV

  energy without entropy =     2413.74282518  energy(sigma->0) =     2413.74282518


--------------------------------------------------------------------------------------------------------




--------------------------------------- Iteration      1(   2)  ---------------------------------------


    TRIAL :  cpu time   30.9201: real time   31.2365
    CORREC:  cpu time    0.0001: real time    0.0001
    --------------------------------------------
      LOOP:  cpu time   30.9623: real time   31.2794

 eigenvalue-minimisations  :   560
 total energy-change (2. order) :-0.2443248E+04  (-0.2314469E+04)
 number of electron     216.0000000 magnetization 
 augmentation part      216.0000000 magnetization 

 Free energy of the ion-electron system (eV)
  ---------------------------------------------------
  alpha Z        PSCENC =        59.93625244
  Ewald energy   TEWEN  =     32604.61742785
  -Hartree energ DENC   =    -38780.03525284
  -exchange      EXHF   =         0.00000000
  -V(xc)+E(xc)   XCENC  =       602.84092912
  PAW double counting   =      6339.73130699    -6197.22120962
  entropy T*S    EENTRO =        -0.00000000
  eigenvalues    EBANDS =     -3028.89841982
  atomic energy  EATOM  =      8369.52358910
  ---------------------------------------------------
  free energy    TOTEN  =       -29.50537678 eV

  energy without entropy =      -29.50537678  energy(sigma->0) =      -29.50537678


--------------------------------------------------------------------------------------------------------




--------------------------------------- Iteration      1(   3)  ---------------------------------------


    TRIAL :  cpu time   24.0340: real time   24.2380
    CORREC:  cpu time    0.0001: real time    0.0003
    --------------------------------------------
      LOOP:  cpu time   24.1005: real time   24.3074

 eigenvalue-minimisations  :   392
 total energy-change (2. order) :-0.5636705E+03  (-0.5608179E+03)
 number of electron     216.0000000 magnetization 
 augmentation part      216.0000000 magnetization 

 Free energy of the ion-electron system (eV)
  ---------------------------------------------------
  alpha Z        PSCENC =        59.93625244
  Ewald energy   TEWEN  =     32604.61742785
  -Hartree energ DENC   =    -38780.03525284
  -exchange      EXHF   =         0.00000000
  -V(xc)+E(xc)   XCENC  =       602.84092912
  PAW double counting   =      6339.73130699    -6197.22120962
  entropy T*S    EENTRO =        -0.00000000
  eigenvalues    EBANDS =     -3592.56888045
  atomic energy  EATOM  =      8369.52358910
  ---------------------------------------------------
  free energy    TOTEN  =      -593.17583740 eV

  energy without entropy =     -593.17583740  energy(sigma->0) =     -593.17583740


--------------------------------------------------------------------------------------------------------




--------------------------------------- Iteration      1(   4)  ---------------------------------------


    TRIAL :  cpu time   26.3346: real time   26.5584
    CORREC:  cpu time    0.0001: real time    0.0001
    --------------------------------------------
      LOOP:  cpu time   26.4140: real time   26.6411

 eigenvalue-minimisations  :   448
 total energy-change (2. order) :-0.2652970E+02  (-0.2637307E+02)
 number of electron     216.0000000 magnetization 
 augmentation part      216.0000000 magnetization 

 Free energy of the ion-electron system (eV)
  ---------------------------------------------------
  alpha Z        PSCENC =        59.93625244
  Ewald energy   TEWEN  =     32604.61742785
  -Hartree energ DENC   =    -38780.03525284
  -exchange      EXHF   =         0.00000000
  -V(xc)+E(xc)   XCENC  =       602.84092912
  PAW double counting   =      6339.73130699    -6197.22120962
  entropy T*S    EENTRO =        -0.00000000
  eigenvalues    EBANDS =     -3619.09857991
  atomic energy  EATOM  =      8369.52358910
  ---------------------------------------------------
  free energy    TOTEN  =      -619.70553686 eV

  energy without entropy =     -619.70553686  energy(sigma->0) =     -619.70553686


--------------------------------------------------------------------------------------------------------




--------------------------------------- Iteration      1(   5)  ---------------------------------------


    TRIAL :  cpu time   21.7255: real time   21.9322
    CORREC:  cpu time    0.0001: real time    0.0001
    CHARGE:  cpu time    2.2891: real time    2.3075
    --------------------------------------------
      LOOP:  cpu time   24.0739: real time   24.3096

 eigenvalue-minimisations  :   336
 total energy-change (2. order) :-0.9255171E+00  (-0.9250030E+00)
 number of electron     216.0000000 magnetization 
 augmentation part       -0.4301610 magnetization 

 Free energy of the ion-electron system (eV)
  ---------------------------------------------------
  alpha Z        PSCENC =        59.93625244
  Ewald energy   TEWEN  =     32604.61742785
  -Hartree energ DENC   =    -38780.03525284
  -exchange      EXHF   =         0.00000000
  -V(xc)+E(xc)   XCENC  =       602.84092912
  PAW double counting   =      6339.73130699    -6197.22120962
  entropy T*S    EENTRO =        -0.00000000
  eigenvalues    EBANDS =     -3620.02409704
  atomic energy  EATOM  =      8369.52358910
  ---------------------------------------------------
  free energy    TOTEN  =      -620.63105400 eV

  energy without entropy =     -620.63105400  energy(sigma->0) =     -620.63105400


--------------------------------------------------------------------------------------------------------




--------------------------------------- Iteration      1(   6)  ---------------------------------------


    POTLOK:  cpu time    1.4450: real time    1.4534
    SETDIJ:  cpu time    0.2339: real time    0.2346
    TRIAL :  cpu time   15.4380: real time   15.5869
    CORREC:  cpu time    7.1043: real time    7.1511
    CHARGE:  cpu time    2.2872: real time    2.3053
    --------------------------------------------
      LOOP:  cpu time   26.5465: real time   26.8065

 eigenvalue-minimisations  :     0
 total energy-change (2. order) : 0.1040937E+03  (-0.1204578E+02)
 number of electron     216.0000000 magnetization 
 augmentation part       -0.4923184 magnetization 

 Free energy of the ion-electron system (eV)
  ---------------------------------------------------
  alpha Z        PSCENC =        59.93625244
  Ewald energy   TEWEN  =     32604.61742785
  -Hartree energ DENC   =    -40111.66155458
  -exchange      EXHF   =         0.00000000
  -V(xc)+E(xc)   XCENC  =       669.74735295
  PAW double counting   =    113773.08714618  -113636.32042755
  entropy T*S    EENTRO =        -0.00000000
  eigenvalues    EBANDS =     -2245.46715568
  atomic energy  EATOM  =      8369.52358910
  ---------------------------------------------------
  free energy    TOTEN  =      -516.53736929 eV

  energy without entropy =     -516.53736929  energy(sigma->0) =     -516.53736929


--------------------------------------------------------------------------------------------------------




--------------------------------------- Iteration      1(   7)  ---------------------------------------


    POTLOK:  cpu time    1.4348: real time    1.4429
    SETDIJ:  cpu time    0.2290: real time    0.2298
    TRIAL :  cpu time   15.3947: real time   15.5882
    CORREC:  cpu time    7.1066: real time    7.1589
    CHARGE:  cpu time    2.2811: real time    2.2998
    --------------------------------------------
      LOOP:  cpu time   26.4762: real time   26.7533

 eigenvalue-minimisations  :     0
 total energy-change (2. order) :-0.1205918E+02  (-0.1601638E+01)
 number of electron     216.0000000 magnetization 
 augmentation part       -0.5230917 magnetization 

 Free energy of the ion-electron system (eV)
  ---------------------------------------------------
  alpha Z        PSCENC =        59.93625244
  Ewald energy   TEWEN  =     32604.61742785
  -Hartree energ DENC   =    -39693.89689837
  -exchange      EXHF   =         0.00000000
  -V(xc)+E(xc)   XCENC  =       649.94224100
  PAW double counting   =    132055.13718405  -131915.62214421
  entropy T*S    EENTRO =        -0.00000000
  eigenvalues    EBANDS =     -2658.23419751
  atomic energy  EATOM  =      8369.52358910
  ---------------------------------------------------
  free energy    TOTEN  =      -528.59654565 eV

  energy without entropy =     -528.59654565  energy(sigma->0) =     -528.59654565


--------------------------------------------------------------------------------------------------------




--------------------------------------- Iteration      1(   8)  ---------------------------------------


    POTLOK:  cpu time    1.4324: real time    1.4398
    SETDIJ:  cpu time    0.2351: real time    0.2359
    TRIAL :  cpu time   15.4642: real time   15.5993
    CORREC:  cpu time    7.0949: real time    7.1579
    CHARGE:  cpu time    2.2808: real time    2.3010
    --------------------------------------------
      LOOP:  cpu time   26.5931: real time   26.8232

 eigenvalue-minimisations  :     0
 total energy-change (2. order) :-0.1602048E+01  (-0.5325302E+00)
 number of electron     216.0000000 magnetization 
 augmentation part       -0.5204693 magnetization 

 Free energy of the ion-electron system (eV)
  ---------------------------------------------------
  alpha Z        PSCENC =        59.93625244
  Ewald energy   TEWEN  =     32604.61742785
  -Hartree energ DENC   =    -39664.27031572
  -exchange      EXHF   =         0.00000000
  -V(xc)+E(xc)   XCENC  =       648.31646220
  PAW double counting   =    140226.53773487  -140086.53419216
  entropy T*S    EENTRO =        -0.00000000
  eigenvalues    EBANDS =     -2688.32555247
  atomic energy  EATOM  =      8369.52358910
  ---------------------------------------------------
  free energy    TOTEN  =      -530.19859389 eV

  energy without entropy =     -530.19859389  energy(sigma->0) =     -530.19859389


--------------------------------------------------------------------------------------------------------




--------------------------------------- Iteration      1(   9)  ---------------------------------------


    POTLOK:  cpu time    1.4353: real time    1.4432
    SETDIJ:  cpu time    0.2328: real time    0.2336
    TRIAL :  cpu time   15.4577: real time   15.5997
    CORREC:  cpu time    7.1061: real time    7.1680
    CHARGE:  cpu time    2.2809: real time    2.2999
    --------------------------------------------
      LOOP:  cpu time   26.6024: real time   26.8406

 eigenvalue-minimisations  :     0
 total energy-change (2. order) :-0.5320881E+00  (-0.2104230E+00)
 number of electron     216.0000000 magnetization 
 augmentation part       -0.5145647 magnetization 

 Free energy of the ion-electron system (eV)
  ---------------------------------------------------
  alpha Z        PSCENC =        59.93625244
  Ewald energy   TEWEN  =     32604.61742785
  -Hartree energ DENC   =    -39671.64209559
  -exchange      EXHF   =         0.00000000
  -V(xc)+E(xc)   XCENC  =       648.05289954
  PAW double counting   =    146580.94932826  -146440.74283897
  entropy T*S    EENTRO =        -0.00000000
  eigenvalues    EBANDS =     -2681.42524466
  atomic energy  EATOM  =      8369.52358910
  ---------------------------------------------------
  free energy    TOTEN  =      -530.73068202 eV

  energy without entropy =     -530.73068202  energy(sigma->0) =     -530.73068202


--------------------------------------------------------------------------------------------------------




--------------------------------------- Iteration      1(  10)  ---------------------------------------


    POTLOK:  cpu time    1.4443: real time    1.4522
    SETDIJ:  cpu time    0.2290: real time    0.2298
    TRIAL :  cpu time   15.4579: real time   15.5945
    CORREC:  cpu time    7.1182: real time    7.1695
    CHARGE:  cpu time    2.3069: real time    2.3248
    --------------------------------------------
      LOOP:  cpu time   26.6086: real time   26.8384

 eigenvalue-minimisations  :     0
 total energy-change (2. order) :-0.2101079E+00  (-0.8986011E-01)
 number of electron     216.0000000 magnetization 
 augmentation part       -0.5078411 magnetization 

 Free energy of the ion-electron system (eV)
  ---------------------------------------------------
  alpha Z        PSCENC =        59.93625244
  Ewald energy   TEWEN  =     32604.61742785
  -Hartree energ DENC   =    -39671.01621430
  -exchange      EXHF   =         0.00000000
  -V(xc)+E(xc)   XCENC  =       647.82605947
  PAW double counting   =    148988.62470236  -148848.31848882
  entropy T*S    EENTRO =        -0.00000000
  eigenvalues    EBANDS =     -2682.13411808
  atomic energy  EATOM  =      8369.52358910
  ---------------------------------------------------
  free energy    TOTEN  =      -530.94078997 eV

  energy without entropy =     -530.94078997  energy(sigma->0) =     -530.94078997


--------------------------------------------------------------------------------------------------------




--------------------------------------- Iteration      1(  11)  ---------------------------------------


    POTLOK:  cpu time    1.4435: real time    1.4513
    SETDIJ:  cpu time    0.2328: real time    0.2336
    TRIAL :  cpu time   15.4610: real time   15.5823
    CORREC:  cpu time    7.1062: real time    7.1748
    CHARGE:  cpu time    2.2835: real time    2.3052
    --------------------------------------------
      LOOP:  cpu time   26.5800: real time   26.8086

 eigenvalue-minimisations  :     0
 total energy-change (2. order) :-0.8967884E-01  (-0.3533459E-01)
 number of electron     216.0000000 magnetization 
 augmentation part       -0.5038969 magnetization 

 Free energy of the ion-electron system (eV)
  ---------------------------------------------------
  alpha Z        PSCENC =        59.93625244
  Ewald energy   TEWEN  =     32604.61742785
  -Hartree energ DENC   =    -39665.14817903
  -exchange      EXHF   =         0.00000000
  -V(xc)+E(xc)   XCENC  =       647.67574988
  PAW double counting   =    148778.21366552  -148637.90787485
  entropy T*S    EENTRO =        -0.00000000
  eigenvalues    EBANDS =     -2687.94109972
  atomic energy  EATOM  =      8369.52358910
  ---------------------------------------------------
  free energy    TOTEN  =      -531.03046881 eV

  energy without entropy =     -531.03046881  energy(sigma->0) =     -531.03046881


--------------------------------------------------------------------------------------------------------




--------------------------------------- Iteration      1(  12)  ---------------------------------------


    POTLOK:  cpu time    1.4455: real time    1.4534
    SETDIJ:  cpu time    0.2471: real time    0.2480
    TRIAL :  cpu time   15.4621: real time   15.6104
    CORREC:  cpu time    7.0919: real time    7.1677
    CHARGE:  cpu time    2.2845: real time    2.3046
    --------------------------------------------
      LOOP:  cpu time   26.5692: real time   26.8261

 eigenvalue-minimisations  :     0
 total energy-change (2. order) :-0.3530723E-01  (-0.1121817E-01)
 number of electron     216.0000000 magnetization 
 augmentation part       -0.5038320 magnetization 

 Free energy of the ion-electron system (eV)
  ---------------------------------------------------
  alpha Z        PSCENC =        59.93625244
  Ewald energy   TEWEN  =     32604.61742785
  -Hartree energ DENC   =    -39660.51163091
  -exchange      EXHF   =         0.00000000
  -V(xc)+E(xc)   XCENC  =       647.57532289
  PAW double counting   =    147986.52391332  -147846.24647564
  entropy T*S    EENTRO =        -0.00000000
  eigenvalues    EBANDS =     -2692.48417509
  atomic energy  EATOM  =      8369.52358910
  ---------------------------------------------------
  free energy    TOTEN  =      -531.06577604 eV

  energy without entropy =     -531.06577604  energy(sigma->0) =     -531.06577604


--------------------------------------------------------------------------------------------------------




--------------------------------------- Iteration      1(  13)  ---------------------------------------


    POTLOK:  cpu time    1.4450: real time    1.4528
    SETDIJ:  cpu time    0.2291: real time    0.2299
    TRIAL :  cpu time   15.4301: real time   15.5896
    CORREC:  cpu time    7.1168: real time    7.1680
    CHARGE:  cpu time    2.2881: real time    2.3052
    --------------------------------------------
      LOOP:  cpu time   26.6283: real time   26.8684

 eigenvalue-minimisations  :     0
 total energy-change (2. order) :-0.1122952E-01  (-0.3147059E-02)
 number of electron     216.0000000 magnetization 
 augmentation part       -0.5045341 magnetization 

 Free energy of the ion-electron system (eV)
  ---------------------------------------------------
  alpha Z        PSCENC =        59.93625244
  Ewald energy   TEWEN  =     32604.61742785
  -Hartree energ DENC   =    -39659.02491389
  -exchange      EXHF   =         0.00000000
  -V(xc)+E(xc)   XCENC  =       647.52541413
  PAW double counting   =    147411.96321393  -147271.69962685
  entropy T*S    EENTRO =        -0.00000000
  eigenvalues    EBANDS =     -2693.91836227
  atomic energy  EATOM  =      8369.52358910
  ---------------------------------------------------
  free energy    TOTEN  =      -531.07700556 eV

  energy without entropy =     -531.07700556  energy(sigma->0) =     -531.07700556


--------------------------------------------------------------------------------------------------------




--------------------------------------- Iteration      1(  14)  ---------------------------------------


    POTLOK:  cpu time    1.4406: real time    1.4558
    SETDIJ:  cpu time    0.2284: real time    0.2292
    TRIAL :  cpu time   15.4635: real time   15.5920
    CORREC:  cpu time    7.1413: real time    7.1896
    CHARGE:  cpu time    2.2856: real time    2.3021
    --------------------------------------------
      LOOP:  cpu time   26.5947: real time   26.8412

 eigenvalue-minimisations  :     0
 total energy-change (2. order) :-0.3152516E-02  (-0.8147758E-03)
 number of electron     216.0000000 magnetization 
 augmentation part       -0.5048426 magnetization 

 Free energy of the ion-electron system (eV)
  ---------------------------------------------------
  alpha Z        PSCENC =        59.93625244
  Ewald energy   TEWEN  =     32604.61742785
  -Hartree energ DENC   =    -39659.05407132
  -exchange      EXHF   =         0.00000000
  -V(xc)+E(xc)   XCENC  =       647.52415479
  PAW double counting   =    147143.02703436  -147002.76969772
  entropy T*S    EENTRO =        -0.00000000
  eigenvalues    EBANDS =     -2693.88484758
  atomic energy  EATOM  =      8369.52358910
  ---------------------------------------------------
  free energy    TOTEN  =      -531.08015808 eV

  energy without entropy =     -531.08015808  energy(sigma->0) =     -531.08015808


--------------------------------------------------------------------------------------------------------




--------------------------------------- Iteration      1(  15)  ---------------------------------------


    POTLOK:  cpu time    1.4464: real time    1.4541
    SETDIJ:  cpu time    0.2308: real time    0.2316
    TRIAL :  cpu time   15.4823: real time   15.6156
    CORREC:  cpu time    7.1175: real time    7.1666
    CHARGE:  cpu time    2.2893: real time    2.3061
    --------------------------------------------
      LOOP:  cpu time   26.6548: real time   26.8751

 eigenvalue-minimisations  :     0
 total energy-change (2. order) :-0.8151943E-03  (-0.2355206E-03)
 number of electron     216.0000000 magnetization 
 augmentation part       -0.5049934 magnetization 

 Free energy of the ion-electron system (eV)
  ---------------------------------------------------
  alpha Z        PSCENC =        59.93625244
  Ewald energy   TEWEN  =     32604.61742785
  -Hartree energ DENC   =    -39658.97199885
  -exchange      EXHF   =         0.00000000
  -V(xc)+E(xc)   XCENC  =       647.52524780
  PAW double counting   =    147039.10524692  -146898.85050897
  entropy T*S    EENTRO =        -0.00000000
  eigenvalues    EBANDS =     -2693.96622956
  atomic energy  EATOM  =      8369.52358910
  ---------------------------------------------------
  free energy    TOTEN  =      -531.08097327 eV

  energy without entropy =     -531.08097327  energy(sigma->0) =     -531.08097327


--------------------------------------------------------------------------------------------------------




--------------------------------------- Iteration      1(  16)  ---------------------------------------


    POTLOK:  cpu time    1.4406: real time    1.4485
    SETDIJ:  cpu time    0.2376: real time    0.2384
    TRIAL :  cpu time   15.4818: real time   15.5955
    CORREC:  cpu time    7.1192: real time    7.1671
    CHARGE:  cpu time    2.2851: real time    2.3024
    --------------------------------------------
      LOOP:  cpu time   26.5876: real time   26.7777

 eigenvalue-minimisations  :     0
 total energy-change (2. order) :-0.2358622E-03  (-0.8742012E-04)
 number of electron     216.0000000 magnetization 
 augmentation part       -0.5050415 magnetization 

 Free energy of the ion-electron system (eV)
  ---------------------------------------------------
  alpha Z        PSCENC =        59.93625244
  Ewald energy   TEWEN  =     32604.61742785
  -Hartree energ DENC   =    -39658.87817029
  -exchange      EXHF   =         0.00000000
  -V(xc)+E(xc)   XCENC  =       647.52367225
  PAW double counting   =    146979.61756758  -146839.36333595
  entropy T*S    EENTRO =        -0.00000000
  eigenvalues    EBANDS =     -2694.05821211
  atomic energy  EATOM  =      8369.52358910
  ---------------------------------------------------
  free energy    TOTEN  =      -531.08120913 eV

  energy without entropy =     -531.08120913  energy(sigma->0) =     -531.08120913


--------------------------------------------------------------------------------------------------------




--------------------------------------- Iteration      1(  17)  ---------------------------------------


    POTLOK:  cpu time    1.4394: real time    1.4493
    SETDIJ:  cpu time    0.2346: real time    0.2355
    TRIAL :  cpu time   15.4217: real time   15.6024
    CORREC:  cpu time    7.0877: real time    7.1623
    CHARGE:  cpu time    2.2813: real time    2.3023
    --------------------------------------------
      LOOP:  cpu time   26.4884: real time   26.8244

 eigenvalue-minimisations  :     0
 total energy-change (2. order) :-0.8622644E-04  (-0.4026057E-04)
 number of electron     216.0000000 magnetization 
 augmentation part       -0.5050693 magnetization 

 Free energy of the ion-electron system (eV)
  ---------------------------------------------------
  alpha Z        PSCENC =        59.93625244
  Ewald energy   TEWEN  =     32604.61742785
  -Hartree energ DENC   =    -39659.02722365
  -exchange      EXHF   =         0.00000000
  -V(xc)+E(xc)   XCENC  =       647.53214058
  PAW double counting   =    146934.72715107  -146794.47371231
  entropy T*S    EENTRO =        -0.00000000
  eigenvalues    EBANDS =     -2693.91692045
  atomic energy  EATOM  =      8369.52358910
  ---------------------------------------------------
  free energy    TOTEN  =      -531.08129536 eV

  energy without entropy =     -531.08129536  energy(sigma->0) =     -531.08129536


--------------------------------------------------------------------------------------------------------




--------------------------------------- Iteration      1(  18)  ---------------------------------------


    POTLOK:  cpu time    1.4414: real time    1.4490
    SETDIJ:  cpu time    0.2336: real time    0.2344
    TRIAL :  cpu time   15.4889: real time   15.5994
    CORREC:  cpu time    7.1311: real time    7.1793
    CHARGE:  cpu time    2.2816: real time    2.2983
    --------------------------------------------
      LOOP:  cpu time   26.6588: real time   26.8504

 eigenvalue-minimisations  :     0
 total energy-change (2. order) :-0.3877672E-04  (-0.1751983E-04)
 number of electron     216.0000000 magnetization 
 augmentation part       -0.5051097 magnetization 

 Free energy of the ion-electron system (eV)
  ---------------------------------------------------
  alpha Z        PSCENC =        59.93625244
  Ewald energy   TEWEN  =     32604.61742785
  -Hartree energ DENC   =    -39659.11911126
  -exchange      EXHF   =         0.00000000
  -V(xc)+E(xc)   XCENC  =       647.53625949
  PAW double counting   =    146918.10377493  -146777.85014469
  entropy T*S    EENTRO =        -0.00000000
  eigenvalues    EBANDS =     -2693.82938200
  atomic energy  EATOM  =      8369.52358910
  ---------------------------------------------------
  free energy    TOTEN  =      -531.08133414 eV

  energy without entropy =     -531.08133414  energy(sigma->0) =     -531.08133414


--------------------------------------------------------------------------------------------------------




--------------------------------------- Iteration      1(  19)  ---------------------------------------


    POTLOK:  cpu time    1.4434: real time    1.4521
    SETDIJ:  cpu time    0.2330: real time    0.2341
    TRIAL :  cpu time   15.4393: real time   15.5853
    CORREC:  cpu time    7.1151: real time    7.1685
    CHARGE:  cpu time    2.2815: real time    2.2975
    --------------------------------------------
      LOOP:  cpu time   26.5517: real time   26.7865

 eigenvalue-minimisations  :     0
 total energy-change (2. order) :-0.1704125E-04  (-0.7121041E-05)
 number of electron     216.0000000 magnetization 
 augmentation part       -0.5051144 magnetization 

 Free energy of the ion-electron system (eV)
  ---------------------------------------------------
  alpha Z        PSCENC =        59.93625244
  Ewald energy   TEWEN  =     32604.61742785
  -Hartree energ DENC   =    -39659.11477788
  -exchange      EXHF   =         0.00000000
  -V(xc)+E(xc)   XCENC  =       647.53516029
  PAW double counting   =    146926.75330013  -146786.49889971
  entropy T*S    EENTRO =        -0.00000000
  eigenvalues    EBANDS =     -2693.83340341
  atomic energy  EATOM  =      8369.52358910
  ---------------------------------------------------
  free energy    TOTEN  =      -531.08135118 eV

  energy without entropy =     -531.08135118  energy(sigma->0) =     -531.08135118


--------------------------------------------------------------------------------------------------------




--------------------------------------- Iteration      1(  20)  ---------------------------------------


    POTLOK:  cpu time    1.4420: real time    1.4495
    SETDIJ:  cpu time    0.2360: real time    0.2368
    TRIAL :  cpu time   15.4851: real time   15.5943
    CORREC:  cpu time    7.1165: real time    7.1695
    CHARGE:  cpu time    2.2880: real time    2.3041
    --------------------------------------------
      LOOP:  cpu time   26.6202: real time   26.8124

 eigenvalue-minimisations  :     0
 total energy-change (2. order) :-0.6775110E-05  (-0.1730774E-05)
 number of electron     216.0000000 magnetization 
 augmentation part       -0.5051139 magnetization 

 Free energy of the ion-electron system (eV)
  ---------------------------------------------------
  alpha Z        PSCENC =        59.93625244
  Ewald energy   TEWEN  =     32604.61742785
  -Hartree energ DENC   =    -39659.14649699
  -exchange      EXHF   =         0.00000000
  -V(xc)+E(xc)   XCENC  =       647.53613252
  PAW double counting   =    146940.01202964  -146799.75751289
  entropy T*S    EENTRO =        -0.00000000
  eigenvalues    EBANDS =     -2693.80277963
  atomic energy  EATOM  =      8369.52358910
  ---------------------------------------------------
  free energy    TOTEN  =      -531.08135795 eV

  energy without entropy =     -531.08135795  energy(sigma->0) =     -531.08135795


--------------------------------------------------------------------------------------------------------




--------------------------------------- Iteration      1(  21)  ---------------------------------------


    POTLOK:  cpu time    1.4477: real time    1.4564
    SETDIJ:  cpu time    0.2356: real time    0.2364
    TRIAL :  cpu time   15.4828: real time   15.6160
    CORREC:  cpu time    7.1175: real time    7.1698
    CHARGE:  cpu time    2.2950: real time    2.3117
    --------------------------------------------
      LOOP:  cpu time   26.6401: real time   26.8560

 eigenvalue-minimisations  :     0
 total energy-change (2. order) :-0.1754001E-05  (-0.6072533E-06)
 number of electron     216.0000000 magnetization 
 augmentation part       -0.5051066 magnetization 

 Free energy of the ion-electron system (eV)
  ---------------------------------------------------
  alpha Z        PSCENC =        59.93625244
  Ewald energy   TEWEN  =     32604.61742785
  -Hartree energ DENC   =    -39659.14203929
  -exchange      EXHF   =         0.00000000
  -V(xc)+E(xc)   XCENC  =       647.53552320
  PAW double counting   =    146945.03003314  -146804.77547858
  entropy T*S    EENTRO =        -0.00000000
  eigenvalues    EBANDS =     -2693.80666758
  atomic energy  EATOM  =      8369.52358910
  ---------------------------------------------------
  free energy    TOTEN  =      -531.08135971 eV

  energy without entropy =     -531.08135971  energy(sigma->0) =     -531.08135971


--------------------------------------------------------------------------------------------------------




--------------------------------------- Iteration      1(  22)  ---------------------------------------


    POTLOK:  cpu time    1.4439: real time    1.4517
    SETDIJ:  cpu time    0.2306: real time    0.2314
    TRIAL :  cpu time   15.4492: real time   15.6052
    CORREC:  cpu time    7.1176: real time    7.1858
    CHARGE:  cpu time    2.2764: real time    2.2971
    --------------------------------------------
      LOOP:  cpu time   26.5677: real time   26.8240

 eigenvalue-minimisations  :     0
 total energy-change (2. order) :-0.5679030E-06  (-0.2484779E-06)
 number of electron     216.0000000 magnetization 
 augmentation part       -0.5050988 magnetization 

 Free energy of the ion-electron system (eV)
  ---------------------------------------------------
  alpha Z        PSCENC =        59.93625244
  Ewald energy   TEWEN  =     32604.61742785
  -Hartree energ DENC   =    -39659.13583803
  -exchange      EXHF   =         0.00000000
  -V(xc)+E(xc)   XCENC  =       647.53517425
  PAW double counting   =    146946.35896997  -146806.10446581
  entropy T*S    EENTRO =        -0.00000000
  eigenvalues    EBANDS =     -2693.81247006
  atomic energy  EATOM  =      8369.52358910
  ---------------------------------------------------
  free energy    TOTEN  =      -531.08136028 eV

  energy without entropy =     -531.08136028  energy(sigma->0) =     -531.08136028


--------------------------------------------------------------------------------------------------------




--------------------------------------- Iteration      1(  23)  ---------------------------------------


    POTLOK:  cpu time    1.4451: real time    1.4531
    SETDIJ:  cpu time    0.2316: real time    0.2324
    TRIAL :  cpu time   15.4476: real time   15.6056
    CORREC:  cpu time    7.1152: real time    7.1714
    CHARGE:  cpu time    2.2812: real time    2.2983
    --------------------------------------------
      LOOP:  cpu time   26.5366: real time   26.8049

 eigenvalue-minimisations  :     0
 total energy-change (2. order) :-0.2107117E-06  (-0.8945162E-07)
 number of electron     216.0000000 magnetization 
 augmentation part       -0.5050967 magnetization 

 Free energy of the ion-electron system (eV)
  ---------------------------------------------------
  alpha Z        PSCENC =        59.93625244
  Ewald energy   TEWEN  =     32604.61742785
  -Hartree energ DENC   =    -39659.13194075
  -exchange      EXHF   =         0.00000000
  -V(xc)+E(xc)   XCENC  =       647.53504710
  PAW double counting   =    146946.78124210  -146806.52680491
  entropy T*S    EENTRO =        -0.00000000
  eigenvalues    EBANDS =     -2693.81617342
  atomic energy  EATOM  =      8369.52358910
  ---------------------------------------------------
  free energy    TOTEN  =      -531.08136049 eV

  energy without entropy =     -531.08136049  energy(sigma->0) =     -531.08136049


--------------------------------------------------------------------------------------------------------




--------------------------------------- Iteration      1(  24)  ---------------------------------------


    POTLOK:  cpu time    1.4520: real time    1.4605
    SETDIJ:  cpu time    0.2229: real time    0.2236
    TRIAL :  cpu time   15.4277: real time   15.5915
    CORREC:  cpu time    7.1041: real time    7.1731
    EDDIAG:  cpu time    3.2030: real time    3.2358
    CHARGE:  cpu time    2.2872: real time    2.3047
    --------------------------------------------
      LOOP:  cpu time   29.7616: real time   30.0552

 eigenvalue-minimisations  :     0
 total energy-change (2. order) :-0.7080962E-07  (-0.3671512E-07)
 number of electron     216.0000000 magnetization 
 augmentation part       -0.5050954 magnetization 

 Free energy of the ion-electron system (eV)
  ---------------------------------------------------
  alpha Z        PSCENC =        59.93625244
  Ewald energy   TEWEN  =     32604.61742785
  -Hartree energ DENC   =    -39659.12965132
  -exchange      EXHF   =         0.00000000
  -V(xc)+E(xc)   XCENC  =       647.53497694
  PAW double counting   =    146946.90094071  -146806.64652257
  entropy T*S    EENTRO =        -0.00000000
  eigenvalues    EBANDS =     -2693.81837371
  atomic energy  EATOM  =      8369.52358910
  ---------------------------------------------------
  free energy    TOTEN  =      -531.08136056 eV

  energy without entropy =     -531.08136056  energy(sigma->0) =     -531.08136056


--------------------------------------------------------------------------------------------------------


  average scaling for gradient   1.0061


 average (electrostatic) potential at core
  the test charge radii are     0.5770  0.5955
  (the norm of the test charge is              1.0000)
       1 -87.7276       2 -87.7244       3 -87.7300       4 -87.7327       5 -87.7202
       6 -87.7172       7 -87.7280       8 -87.7210       9 -87.7217      10 -87.7268
      11 -87.7167      12 -87.7193      13 -87.7257      14 -87.7178      15 -87.7158
      16 -87.7192      17 -87.7214      18 -87.7251      19 -87.7238      20 -87.7205
      21 -87.7180      22 -87.7139      23 -87.7328      24 -87.7308      25 -87.7183
      26 -87.7188      27 -87.7189      28 -87.7259      29 -87.7191      30 -87.7150
      31 -87.7262      32 -87.7244      33 -87.7213      34 -87.7199      35 -87.7156
      36 -87.7202      37 -87.7185      38 -87.7241      39 -87.7240      40 -87.7253
      41 -87.7266      42 -87.7282      43 -87.7229      44 -87.7264      45 -87.7182
      46 -87.7178      47 -87.7201      48 -87.7181      49 -87.7251      50 -87.7239
      51 -91.8077      52-123.9354      53-123.9374
 
 
 
 E-fermi :  -4.0079     XC(G=0):  -2.3431     alpha+bet : -2.1113

 Fermi energy:        -4.0078518287

 k-point     1 :       0.0000    0.0000    0.0000
  band No.  band energies     occupation 
      1     -28.8668      2.00000
      2     -27.8408      2.00000
      3     -23.2305      2.00000
      4     -22.2472      2.00000
      5     -22.2459      2.00000
      6     -22.2439      2.00000
      7     -22.2430      2.00000
      8     -22.2413      2.00000
      9     -22.2410      2.00000
     10     -20.3122      2.00000
     11     -20.3121      2.00000
     12     -20.3120      2.00000
     13     -20.3115      2.00000
     14     -20.3113      2.00000
     15     -20.3111      2.00000
     16     -19.3768      2.00000
     17     -19.3766      2.00000
     18     -19.3763      2.00000
     19     -19.3760      2.00000
     20     -19.3758      2.00000
     21     -19.3754      2.00000
     22     -17.1568      2.00000
     23     -17.1567      2.00000
     24     -17.1560      2.00000
     25     -17.1553      2.00000
     26     -17.1534      2.00000
     27     -17.1532      2.00000
     28     -15.9968      2.00000
     29     -15.9966      2.00000
     30     -15.9962      2.00000
     31     -15.9960      2.00000
     32     -15.9953      2.00000
     33     -15.9951      2.00000
     34     -14.6043      2.00000
     35     -14.6042      2.00000
     36     -14.6039      2.00000
     37     -14.6034      2.00000
     38     -14.6033      2.00000
     39     -14.6021      2.00000
     40     -12.8197      2.00000
     41     -12.1457      2.00000
     42     -12.1456      2.00000
     43     -12.1451      2.00000
     44     -12.1451      2.00000
     45     -12.1443      2.00000
     46     -12.1441      2.00000
     47     -11.9279      2.00000
     48     -11.9279      2.00000
     49     -11.9265      2.00000
     50     -11.9264      2.00000
     51     -11.9246      2.00000
     52     -11.9243      2.00000
     53     -11.5427      2.00000
     54     -11.2873      2.00000
     55     -11.2853      2.00000
     56     -10.5909      2.00000
     57     -10.4811      2.00000
     58     -10.4810      2.00000
     59     -10.4798      2.00000
     60     -10.4794      2.00000
     61     -10.4792      2.00000
     62     -10.4791      2.00000
     63      -9.4236      2.00000
     64      -9.4208      2.00000
     65      -9.4164      2.00000
     66      -9.4161      2.00000
     67      -9.4133      2.00000
     68      -9.4131      2.00000
     69      -9.1811      2.00000
     70      -9.1806      2.00000
     71      -9.1804      2.00000
     72      -9.1802      2.00000
     73      -9.1796      2.00000
     74      -9.1793      2.00000
     75      -9.1786      2.00000
     76      -9.1782      2.00000
     77      -9.1780      2.00000
     78      -9.1769      2.00000
     79      -9.1766      2.00000
     80      -9.1765      2.00000
     81      -7.6928      2.00000
     82      -7.6897      2.00000
     83      -7.4749      2.00000
     84      -7.4739      2.00000
     85      -7.4730      2.00000
     86      -7.4725      2.00000
     87      -7.4696      2.00000
     88      -7.4692      2.00000
     89      -7.1780      2.00000
     90      -7.1777      2.00000
     91      -7.1752      2.00000
     92      -7.1750      2.00000
     93      -7.1743      2.00000
     94      -7.1741      2.00000
     95      -6.2340      2.00000
     96      -6.2323      2.00000
     97      -6.2318      2.00000
     98      -6.2304      2.00000
     99      -6.2299      2.00000
    100      -6.2289      2.00000
    101      -5.9572      2.00000
    102      -5.9548      2.00000
    103      -4.1359      2.00000
    104      -4.1354      2.00000
    105      -4.1347      2.00000
    106      -4.1341      2.00000
    107      -4.1311      2.00000
    108      -4.1309      2.00000
    109      -1.1602      0.00000
    110      -1.1599      0.00000
    111      -1.1573      0.00000
    112      -1.1571      0.00000
    113      -1.1565      0.00000
    114      -1.1561      0.00000
    115       0.8185      0.00000
    116       0.8196      0.00000
    117       0.8208      0.00000
    118       0.8223      0.00000
    119       0.8230      0.00000
    120       0.8263      0.00000
    121       0.8464      0.00000
    122       1.4402      0.00000
    123       1.5764      0.00000
    124       1.5837      0.00000
    125       1.9251      0.00000
    126       2.0537      0.00000
    127       2.2502      0.00000
    128       2.3269      0.00000
    129       2.3301      0.00000
    130       2.3374      0.00000
    131       2.3482      0.00000
    132       2.6904      0.00000
    133       2.6973      0.00000
    134       2.6979      0.00000
    135       2.7001      0.00000
    136       2.7008      0.00000
    137       2.7010      0.00000
    138       2.7013      0.00000
    139       2.9204      0.00000
    140       2.9943      0.00000
    141       3.0961      0.00000
    142       3.1064      0.00000
    143       3.1129      0.00000
    144       3.1350      0.00000
    145       3.2088      0.00000
    146       3.2123      0.00000
    147       3.2477      0.00000
    148       3.2714      0.00000
    149       3.2782      0.00000
    150       3.3223      0.00000
    151       3.3503      0.00000
    152       4.4164      0.00000
    153       4.7203      0.00000
    154       4.7522      0.00000
    155       4.8211      0.00000
    156       4.8642      0.00000
    157       5.2438      0.00000
    158       5.2661      0.00000
    159       5.2931      0.00000
    160       5.2993      0.00000
    161       5.3046      0.00000
    162       5.3056      0.00000
    163       5.3073      0.00000
    164       5.3186      0.00000
    165       5.4280      0.00000
    166       5.5186      0.00000
    167       5.5570      0.00000
    168       5.7028      0.00000


--------------------------------------------------------------------------------------------------------


 soft charge-density along one line, spin component           1
         0         1         2         3         4         5         6         7         8         9
 total charge-density along one line
 
 pseudopotential strength for first ion, spin component:           1
 12.630  21.251  -0.000   0.000   0.000  -0.000   0.000   0.000
 21.251  35.755  -0.000   0.000   0.000  -0.000   0.000   0.000
 -0.000  -0.000  -3.234   0.000   0.000  -5.794   0.000   0.000
  0.000   0.000   0.000  -3.238   0.000   0.000  -5.800   0.000
  0.000   0.000   0.000   0.000  -3.234   0.000   0.000  -5.794
 -0.000  -0.000  -5.794   0.000   0.000 -10.358   0.000   0.000
  0.000   0.000   0.000  -5.800   0.000   0.000 -10.368   0.000
  0.000   0.000   0.000   0.000  -5.794   0.000   0.000 -10.358
 total augmentation occupancy for first ion, spin component:           1
  9.643  -3.599   0.000  -0.002  -0.000  -0.000   0.001   0.000
 -3.599   1.374  -0.000   0.001   0.000   0.000  -0.000  -0.000
  0.000  -0.000   8.197  -0.009   0.001  -2.896   0.004  -0.000
 -0.002   0.001  -0.009   3.784  -0.000   0.004  -1.107   0.000
 -0.000   0.000   0.001  -0.000   8.196  -0.000   0.000  -2.895
 -0.000   0.000  -2.896   0.004  -0.000   1.036  -0.001   0.000
  0.001  -0.000   0.004  -1.107   0.000  -0.001   0.329   0.000
  0.000  -0.000  -0.000   0.000  -2.895   0.000   0.000   1.035


------------------------ aborting loop because EDIFF is reached ----------------------------------------


    FORLOC:  cpu time    0.1055: real time    0.1062
    FORNL :  cpu time    2.9019: real time    2.9275
    FORCOR:  cpu time    1.5067: real time    1.5146
    OFIELD:  cpu time    0.0025: real time    0.0026

 VOLUME and BASIS-vectors are now :
 -----------------------------------------------------------------------------
  energy-cutoff  :     1000.00
  volume of cell :     2631.08
      direct lattice vectors                 reciprocal lattice vectors
    12.325000000  0.000000000  0.000000000     0.081135903  0.046843835  0.000000000
    -6.162500000 10.673763102  0.000000000     0.000000000  0.093687670  0.000000000
     0.000000000  0.000000000 20.000000000     0.000000000  0.000000000  0.050000000

  length of vectors
    12.325000000 12.325000000 20.000000000     0.093687670  0.093687670  0.050000000


 FORCES acting on ions:
    Electron-Ion                     Ewald-Force                    Non-Local-Force
 -----------------------------------------------------------------------------------------------
   0.593E+01 0.515E+01 0.211E+02   -.593E+01 -.515E+01 -.211E+02   0.153E-02 0.460E-02 0.805E-02
   0.894E+01 0.434E+01 0.256E+02   -.895E+01 -.435E+01 -.256E+02   0.618E-02 0.860E-02 -.726E-02
   0.399E+01 0.106E+02 0.294E+02   -.400E+01 -.106E+02 -.294E+02   0.864E-02 0.303E-01 0.929E-02
   0.555E+01 0.805E+01 0.401E+02   -.557E+01 -.806E+01 -.401E+02   0.300E-01 0.205E-01 0.149E-01
   0.635E+01 0.149E+01 0.213E+02   -.635E+01 -.149E+01 -.213E+02   -.783E-02 0.373E-02 -.646E-03
   0.655E+01 -.124E+01 0.216E+02   -.655E+01 0.123E+01 -.216E+02   -.129E-01 0.117E-01 -.106E-01
   0.102E+02 0.380E+01 0.365E+02   -.103E+02 -.380E+01 -.365E+02   0.286E-01 -.128E-01 0.325E-02
   0.990E+01 -.352E+01 0.380E+02   -.993E+01 0.353E+01 -.380E+02   0.759E-02 -.162E-02 -.118E-01
   -.468E+01 0.952E+01 0.296E+02   0.469E+01 -.954E+01 -.296E+02   0.733E-02 0.161E-03 -.115E-01
   -.745E+01 0.626E+01 0.388E+02   0.747E+01 -.629E+01 -.388E+02   -.319E-01 0.357E-01 0.105E-01
   0.163E+01 -.154E+01 0.181E+02   -.162E+01 0.154E+01 -.181E+02   -.117E-02 -.280E-02 -.270E-02
   0.135E+01 -.112E+01 0.171E+02   -.136E+01 0.113E+01 -.171E+02   -.368E-02 -.530E-02 0.469E-02
   0.396E+01 -.863E+01 0.416E+02   -.399E+01 0.864E+01 -.416E+02   0.484E-01 -.112E-01 0.577E-02
   0.212E+01 -.106E+02 0.303E+02   -.213E+01 0.106E+02 -.303E+02   0.117E-01 -.114E-02 -.197E-01
   -.569E+01 0.353E+01 0.207E+02   0.569E+01 -.353E+01 -.207E+02   0.770E-02 -.126E-02 0.119E-02
   -.798E+01 0.234E+01 0.230E+02   0.799E+01 -.234E+01 -.230E+02   -.676E-02 0.114E-01 -.171E-01
   -.962E+00 -.370E+00 0.165E+02   0.966E+00 0.379E+00 -.165E+02   0.194E-02 -.165E-01 0.230E-02
   0.465E+00 0.341E+01 0.173E+02   -.468E+00 -.340E+01 -.173E+02   0.324E-02 -.102E-01 0.101E-01
   -.157E+01 -.957E+01 0.250E+02   0.156E+01 0.958E+01 -.250E+02   0.597E-02 -.153E-01 0.186E-02
   -.768E+00 -.514E+01 0.189E+02   0.772E+00 0.515E+01 -.189E+02   -.114E-01 -.134E-01 0.363E-03
   0.899E+01 -.396E+01 0.271E+02   -.899E+01 0.396E+01 -.271E+02   0.482E-03 0.269E-02 -.327E-01
   0.579E+01 -.488E+01 0.228E+02   -.579E+01 0.488E+01 -.228E+02   -.479E-02 0.798E-02 -.805E-02
   -.192E+01 0.377E+01 0.467E+02   0.192E+01 -.379E+01 -.467E+02   -.898E-02 0.307E-01 0.472E-01
   -.274E+01 -.594E+01 0.455E+02   0.273E+01 0.595E+01 -.455E+02   0.220E-01 -.187E-01 0.289E-01
   0.293E+01 -.121E+01 0.182E+02   -.292E+01 0.121E+01 -.182E+02   0.626E-02 -.870E-02 -.889E-02
   0.604E+00 0.260E+01 0.183E+02   -.611E+00 -.259E+01 -.183E+02   0.627E-02 -.260E-02 0.392E-02
   -.108E+02 0.144E+01 0.317E+02   0.108E+02 -.145E+01 -.317E+02   0.622E-02 0.190E-01 -.303E-02
   -.102E+02 -.413E+01 0.298E+02   0.102E+02 0.413E+01 -.298E+02   -.214E-01 0.136E-01 0.407E-02
   0.347E+01 -.699E+01 0.237E+02   -.348E+01 0.699E+01 -.236E+02   0.105E-01 0.807E-03 -.185E-01
   0.313E+00 -.283E+01 0.192E+02   -.318E+00 0.283E+01 -.192E+02   -.290E-02 0.102E-03 -.297E-02
   -.775E+01 -.818E+01 0.347E+02   0.777E+01 0.819E+01 -.347E+02   -.234E-01 -.169E-01 0.783E-02
   -.500E+01 -.920E+01 0.261E+02   0.501E+01 0.922E+01 -.261E+02   -.691E-02 -.225E-01 0.105E-01
   0.386E+00 0.148E+01 0.170E+02   -.378E+00 -.148E+01 -.170E+02   -.942E-02 -.187E-02 0.668E-02
   0.999E+00 0.147E+01 0.180E+02   -.995E+00 -.147E+01 -.180E+02   -.137E-01 0.110E-01 -.456E-02
   -.399E+01 0.578E+00 0.193E+02   0.400E+01 -.585E+00 -.193E+02   -.392E-02 0.418E-02 0.558E-02
   -.350E+01 -.145E+01 0.189E+02   0.351E+01 0.144E+01 -.189E+02   -.931E-02 0.433E-02 -.104E-02
   -.691E+01 -.358E+01 0.214E+02   0.692E+01 0.358E+01 -.214E+02   -.952E-02 -.835E-02 0.710E-02
   -.425E+01 -.340E+01 0.186E+02   0.425E+01 0.341E+01 -.186E+02   -.802E-02 -.142E-01 0.111E-01
   -.391E+01 -.506E+01 0.197E+02   0.392E+01 0.508E+01 -.197E+02   -.129E-01 -.211E-01 0.895E-02
   -.584E+00 -.126E+01 0.174E+02   0.590E+00 0.127E+01 -.174E+02   -.546E-02 -.149E-01 0.920E-02
   0.147E+01 0.362E+01 0.179E+02   -.147E+01 -.362E+01 -.180E+02   -.384E-02 -.511E-02 0.818E-02
   0.465E+01 0.729E+01 0.221E+02   -.466E+01 -.730E+01 -.221E+02   0.504E-02 0.468E-02 0.112E-01
   0.386E+00 0.621E+01 0.194E+02   -.388E+00 -.621E+01 -.194E+02   0.109E-01 -.216E-02 0.597E-03
   -.907E-01 0.103E+02 0.263E+02   0.917E-01 -.103E+02 -.263E+02   -.304E-03 0.928E-02 0.593E-02
   -.118E+01 0.229E+01 0.191E+02   0.118E+01 -.229E+01 -.191E+02   0.124E-01 -.464E-02 -.469E-02
   -.469E+01 0.584E+01 0.224E+02   0.469E+01 -.584E+01 -.224E+02   0.329E-03 0.156E-02 -.108E-01
   -.935E+00 -.252E+01 0.180E+02   0.938E+00 0.253E+01 -.180E+02   -.325E-03 -.444E-02 0.323E-02
   -.230E+01 0.899E+00 0.173E+02   0.230E+01 -.895E+00 -.173E+02   -.127E-01 0.113E-02 -.670E-02
   0.228E+00 -.157E+01 0.171E+02   -.222E+00 0.158E+01 -.171E+02   -.799E-02 -.123E-01 0.718E-02
   0.250E+01 0.180E+01 0.173E+02   -.250E+01 -.180E+01 -.173E+02   -.120E-01 0.169E-02 0.351E-02
   0.455E-01 -.312E-01 -.304E+03   -.428E-01 0.234E-01 0.304E+03   -.182E-01 0.187E-01 -.179E-01
   -.228E+03 0.155E+03 -.468E+03   0.279E+03 -.190E+03 0.472E+03   -.527E+02 0.358E+02 -.352E+01
   0.228E+03 -.155E+03 -.449E+03   -.279E+03 0.190E+03 0.446E+03   0.527E+02 -.359E+02 0.319E+01
 -----------------------------------------------------------------------------------------------
   -.104E-01 0.105E-01 0.325E+00   0.000E+00 0.568E-13 0.000E+00   -.118E-01 -.175E-02 -.267E+00
 
 
 POSITION                                       TOTAL-FORCE (eV/Angst)
 -----------------------------------------------------------------------------------
     11.98348      0.00342      0.01417        -0.006960      0.007196     -0.004417
     -0.34154      1.42665      0.01100        -0.015231      0.018169     -0.004819
      2.12355      0.00315      0.01249         0.010722      0.013248     -0.008999
      2.12326      1.42653      0.00641         0.022014      0.016812     -0.004906
     10.75099      2.13819      0.01213        -0.007469      0.017728     -0.000787
     -1.57382      3.56123      0.01110        -0.024225      0.014617     -0.001617
      0.89078      2.13854      0.00548         0.006208      0.013183      0.004383
      0.89099      3.56147      0.00181        -0.012735      0.011455      0.014474
      4.58864      0.00346      0.01135         0.027433     -0.018995     -0.003847
      4.58894      1.42623      0.00646         0.009553      0.024114      0.017337
      9.51854      4.27281      0.01369         0.017283      0.000656      0.000438
     -2.80632      5.69591      0.01434        -0.005564     -0.017715      0.000689
      2.12300      4.27302      0.00000         0.016278      0.018996      0.024551
      2.12335      5.69594      0.00581         0.002985      0.006778      0.000343
      7.05344      0.00333      0.01399         0.007606     -0.014616     -0.000104
      7.05353      1.42635      0.01368        -0.002740      0.013467     -0.005107
      8.28610      6.40752      0.01601         0.019587     -0.021837     -0.001719
     -4.03885      7.83070      0.01636         0.008031     -0.019174     -0.002322
      3.35586      6.40753      0.01007        -0.016450     -0.010960     -0.001947
      3.35599      7.83072      0.01320        -0.018460     -0.007341     -0.000934
     -0.34146      4.27290      0.00723         0.000830      0.020162     -0.004143
     -0.34138      5.69591      0.00946        -0.011521      0.002699      0.001444
      3.35624      2.13791      0.00222        -0.001895      0.027474      0.024745
      3.35573      3.56155      0.00139         0.028878     -0.003874      0.015908
     -1.57395      6.40758      0.01311         0.026944     -0.015039     -0.001170
     -1.57385      7.83068      0.01438         0.010972     -0.002771     -0.000373
      5.82093      2.13784      0.01033         0.021705      0.006087     -0.000072
      5.82114      3.56097      0.01156         0.003770     -0.000314     -0.005190
      0.89092      6.40755      0.00907         0.003780     -0.000197     -0.003191
      0.89106      7.83068      0.01235        -0.007664      0.007914      0.002611
      4.58871      4.27293      0.00850        -0.018392     -0.000528     -0.008337
      4.58852      5.69606      0.01149         0.001285     -0.020899     -0.004205
      9.51845      0.00337      0.01490        -0.018217     -0.005951     -0.000940
      9.51855      1.42644      0.01438        -0.030798      0.021678     -0.000694
      8.28593      2.13803      0.01453         0.001010      0.000047      0.002080
      8.28613      3.56115      0.01464        -0.012218     -0.003984     -0.001375
      7.05356      4.27269      0.01457         0.005217     -0.008250      0.000840
      7.05362      5.69588      0.01553        -0.001543     -0.030051     -0.000982
      5.82112      6.40755      0.01489        -0.015125     -0.018079     -0.001401
      5.82102      7.83073      0.01579        -0.004960     -0.020134     -0.002366
      7.05363      8.54227      0.01631        -0.002878     -0.011537     -0.001624
     -5.27149      9.96549      0.01495         0.000525     -0.001756     -0.005775
     -2.80638      8.54234      0.01558         0.030030     -0.016033     -0.002376
     -2.80627      9.96553      0.01362         0.019698      0.004438     -0.006323
     -0.34149      8.54239      0.01378         0.023747     -0.015772     -0.000520
     -0.34138      9.96550      0.01354         0.011917      0.011544     -0.001442
      2.12343      8.54232      0.01336        -0.013311     -0.013734      0.000283
      2.12354      9.96544      0.01469        -0.025402      0.014804     -0.002141
      4.58846      8.54235      0.01505        -0.020635     -0.016621     -0.000317
      4.58853      9.96550      0.01517        -0.025636      0.007657     -0.001588
      3.04930      2.68154      4.45449        -0.031860      0.020017      0.018388
      4.02070      2.02068      4.51892        -1.652750      1.104275     -0.116311
      2.07767      3.34267      4.39504         1.666631     -1.109048      0.085868
 -----------------------------------------------------------------------------------
    total drift:                               -0.022159      0.008719      0.058360


--------------------------------------------------------------------------------------------------------



  FREE ENERGIE OF THE ION-ELECTRON SYSTEM (eV)
  ---------------------------------------------------
  free  energy   TOTEN  =      -531.08136056 eV

  energy  without entropy=     -531.08136056  energy(sigma->0) =     -531.08136056
 


--------------------------------------------------------------------------------------------------------


    POTLOK:  cpu time    1.6934: real time    1.7020


--------------------------------------------------------------------------------------------------------


 writing wavefunctions
     LOOP+:  cpu time  667.1192: real time  673.5925
    4ORBIT:  cpu time    0.0000: real time    0.0000

 total amount of memory used by VASP MPI-rank0   556209. kBytes
=======================================================================

   base      :      30000. kBytes
   nonl-proj :     184518. kBytes
   fftplans  :      31725. kBytes
   grid      :     282516. kBytes
   one-center:        162. kBytes
   wavefun   :      27288. kBytes
 
  
  
 General timing and accounting informations for this job:
 ========================================================
  
                  Total CPU time used (sec):      704.092
                            User time (sec):      681.619
                          System time (sec):       22.473
                         Elapsed time (sec):      712.898
  
                   Maximum memory used (kb):     1035588.
                   Average memory used (kb):          N/A
  
                          Minor page faults:       190723
                          Major page faults:           87
                 Voluntary context switches:         3661
