 vasp.6.2.1 16May21 (build Nov 06 2021 14:46:37) complex                        
  
 executed on             LinuxIFC date 2025.03.03  18:48:49
 running on  112 total cores
 distrk:  each k-point on   56 cores,    2 groups
 distr:  one band on NCORE=   1 cores,   56 groups


--------------------------------------------------------------------------------------------------------


 INCAR:
   ALGO = Conjugate
   KPAR = 2
   NCORE = 32
   ISMEAR = 0
   SIGMA = 0.01
   PREC = Accurate
   EDIFF = 1E-7
   ENCUT = 1000
   ISIF = 0
   METAGGA = SCAN
   LASPH = .TRUE.
   SYMPREC = 1E-7

 POTCAR:    PAW_PBE C_h 06Feb2004                 
 POTCAR:    PAW_PBE O_h 06Feb2004                 
 -----------------------------------------------------------------------------
|                                                                             |
|           W    W    AA    RRRRR   N    N  II  N    N   GGGG   !!!           |
|           W    W   A  A   R    R  NN   N  II  NN   N  G    G  !!!           |
|           W    W  A    A  R    R  N N  N  II  N N  N  G       !!!           |
|           W WW W  AAAAAA  RRRRR   N  N N  II  N  N N  G  GGG   !            |
|           WW  WW  A    A  R   R   N   NN  II  N   NN  G    G                |
|           W    W  A    A  R    R  N    N  II  N    N   GGGG   !!!           |
|                                                                             |
|     The value NCORE = 32 specified in the INCAR file was overwritten,       |
|     because it was not compatible with the 56 processes available:          |
|     NCORE = 1                                                               |
|     was used instead, please check that this makes sense for your           |
|     machine.                                                                |
|                                                                             |
 -----------------------------------------------------------------------------

 -----------------------------------------------------------------------------
|                                                                             |
|           W    W    AA    RRRRR   N    N  II  N    N   GGGG   !!!           |
|           W    W   A  A   R    R  NN   N  II  NN   N  G    G  !!!           |
|           W    W  A    A  R    R  N N  N  II  N N  N  G       !!!           |
|           W WW W  AAAAAA  RRRRR   N  N N  II  N  N N  G  GGG   !            |
|           WW  WW  A    A  R   R   N   NN  II  N   NN  G    G                |
|           W    W  A    A  R    R  N    N  II  N    N   GGGG   !!!           |
|                                                                             |
|     For optimal performance we recommend to set                             |
|       NCORE = 2 up to number-of-cores-per-socket                            |
|     NCORE specifies how many cores store one orbital (NPAR=cpu/NCORE).      |
|     This setting can greatly improve the performance of VASP for DFT.       |
|     The default, NCORE=1 might be grossly inefficient on modern             |
|     multi-core architectures or massively parallel machines. Do your        |
|     own testing! More info at https://www.vasp.at/wiki/index.php/NCORE      |
|     Unfortunately you need to use the default for GW and RPA                |
|     calculations (for HF NCORE is supported but not extensively tested      |
|     yet).                                                                   |
|                                                                             |
 -----------------------------------------------------------------------------

 POTCAR:    PAW_PBE C_h 06Feb2004                 
   VRHFIN =C: s2p2                                                                                  
   LEXCH  = PE                                                                                      
   EATOM  =   147.1560 eV,   10.8157 Ry                                                             
                                                                                                    
   TITEL  = PAW_PBE C_h 06Feb2004                                                                   
   LULTRA =        F    use ultrasoft PP ?                                                          
   IUNSCR =        1    unscreen: 0-lin 1-nonlin 2-no                                               
   RPACOR =    0.800    partial core radius                                                         
   POMASS =   12.011; ZVAL   =    4.000    mass and valenz                                          
   RCORE  =    1.100    outmost cutoff radius                                                       
   RWIGS  =    1.630; RWIGS  =    0.863    wigner-seitz radius (au A)                               
   ENMAX  =  700.000; ENMIN  =  500.000 eV                                                          
   ICORE  =        2    local potential                                                             
   LCOR   =        T    correct aug charges                                                         
   LPAW   =        T    paw PP                                                                      
   EAUG   =  946.768                                                                                
   DEXC   =    0.000                                                                                
   RMAX   =    1.128    core radius for proj-oper                                                   
   RAUG   =    1.300    factor for augmentation sphere                                              
   RDEP   =    1.162    radius for radial grids                                                     
   RDEPT  =    1.088    core radius for aug-charge                                                  
                                                                                                    
   Atomic configuration                                                                             
    4 entries                                                                                       
     n  l   j            E        occ.                                                              
     1  0  0.50      -273.3789   2.0000                                                             
     2  0  0.50       -13.7508   2.0000                                                             
     2  1  0.50        -5.2854   2.0000                                                             
     3  2  1.50        -5.4423   0.0000                                                             
   Description                                                                                      
     l       E           TYP  RCUT    TYP  RCUT                                                     
     0    -13.7508458     23  1.100                                                                 
     0     -8.2022199     23  1.100                                                                 
     1     -5.2854383     23  1.100                                                                 
     1      1.1560700     23  1.100                                                                 
     2     -5.4423304      7  1.100                                                                 
  local pseudopotential read in
  partial core-charges read in
  partial kinetic energy density read in
  atomic valenz-charges read in
  non local Contribution for L=           0  read in
    real space projection operators read in
  non local Contribution for L=           0  read in
    real space projection operators read in
  non local Contribution for L=           1  read in
    real space projection operators read in
  non local Contribution for L=           1  read in
    real space projection operators read in
    PAW grid and wavefunctions read in
 
   number of l-projection  operators is LMAX  =           4
   number of lm-projection operators is LMMAX =           8
 
 POTCAR:    PAW_PBE O_h 06Feb2004                 
   VRHFIN =O: s2p4                                                                                  
   LEXCH  = PE                                                                                      
   EATOM  =   432.3788 eV,   31.7789 Ry                                                             
                                                                                                    
   TITEL  = PAW_PBE O_h 06Feb2004                                                                   
   LULTRA =        F    use ultrasoft PP ?                                                          
   IUNSCR =        1    unscreen: 0-lin 1-nonlin 2-no                                               
   RPACOR =    0.800    partial core radius                                                         
   POMASS =   16.000; ZVAL   =    6.000    mass and valenz                                          
   RCORE  =    1.100    outmost cutoff radius                                                       
   RWIGS  =    1.400; RWIGS  =    0.741    wigner-seitz radius (au A)                               
   ENMAX  =  700.000; ENMIN  =  500.000 eV                                                          
   ICORE  =        2    local potential                                                             
   LCOR   =        T    correct aug charges                                                         
   LPAW   =        T    paw PP                                                                      
   EAUG   =  888.804                                                                                
   DEXC   =    0.000                                                                                
   RMAX   =    1.128    core radius for proj-oper                                                   
   RAUG   =    1.300    factor for augmentation sphere                                              
   RDEP   =    1.125    radius for radial grids                                                     
   RDEPT  =    1.088    core radius for aug-charge                                                  
                                                                                                    
   Atomic configuration                                                                             
    4 entries                                                                                       
     n  l   j            E        occ.                                                              
     1  0  0.50      -514.6923   2.0000                                                             
     2  0  0.50       -23.9615   2.0000                                                             
     2  1  0.50        -9.0305   4.0000                                                             
     3  2  1.50        -9.5241   0.0000                                                             
   Description                                                                                      
     l       E           TYP  RCUT    TYP  RCUT                                                     
     0    -23.9615319     23  1.100                                                                 
     0    -25.3221145     23  1.100                                                                 
     1     -9.0304911     23  1.100                                                                 
     1     -5.4802209     23  1.100                                                                 
     2     -9.5240782      7  1.100                                                                 
  local pseudopotential read in
  partial core-charges read in
  partial kinetic energy density read in
  atomic valenz-charges read in
  non local Contribution for L=           0  read in
    real space projection operators read in
  non local Contribution for L=           0  read in
    real space projection operators read in
  non local Contribution for L=           1  read in
    real space projection operators read in
  non local Contribution for L=           1  read in
    real space projection operators read in
    PAW grid and wavefunctions read in
 
   number of l-projection  operators is LMAX  =           4
   number of lm-projection operators is LMMAX =           8
 
 -----------------------------------------------------------------------------
|                                                                             |
|               ----> ADVICE to this user running VASP <----                  |
|                                                                             |
|     You have a (more or less) 'large supercell' and for larger cells it     |
|     might be more efficient to use real-space projection operators.         |
|     Therefore, try LREAL= Auto in the INCAR file.                           |
|     Mind: For very accurate calculation, you might also keep the            |
|     reciprocal projection scheme (i.e. LREAL=.FALSE.).                      |
|                                                                             |
 -----------------------------------------------------------------------------

  PAW_PBE C_h 06Feb2004                 :
 energy of atom  1       EATOM= -147.1560
 kinetic energy error for atom=    0.0031 (will be added to EATOM!!)
  PAW_PBE O_h 06Feb2004                 :
 energy of atom  2       EATOM= -432.3788
 kinetic energy error for atom=    0.0171 (will be added to EATOM!!)
 
 
 POSCAR:  C  O
  positions in cartesian coordinates
  No initial velocities read in

 METAGGA = SCAN     LMAXTAU =  6    LMIXTAU =  F

 exchange correlation table for  LEXCH =        8
   RHO(1)=    0.500       N(1)  =     2000
   RHO(2)=  100.500       N(2)  =     4000
 


--------------------------------------------------------------------------------------------------------


 ion  position               nearest neighbor table
   1  0.972  0.000  0.001-  50 1.42   2 1.42  42 1.42
   2  0.039  0.134  0.001-   5 1.42   7 1.42   1 1.42
   3  0.172  0.000  0.001-  42 1.42  44 1.42   4 1.42
   4  0.239  0.134  0.000-   7 1.42   3 1.42  23 1.42
   5  0.972  0.200  0.001-   6 1.42   2 1.42  34 1.42
   6  0.039  0.334  0.001-   5 1.42  21 1.42  11 1.42
   7  0.172  0.200  0.000-   8 1.42   2 1.42   4 1.42
   8  0.239  0.334  0.000-  13 1.42   7 1.42  21 1.42
   9  0.372  0.000  0.001-  10 1.42  44 1.42  46 1.42
  10  0.439  0.134  0.000-  27 1.42   9 1.42  23 1.42
  11  0.972  0.400  0.001-  12 1.42  36 1.42   6 1.42
  12  0.039  0.534  0.001-  25 1.42  11 1.42  17 1.42
  13  0.372  0.400  0.000-   8 1.42  14 1.42  24 1.42
  14  0.439  0.534  0.000-  13 1.42  29 1.42  19 1.42
  15  0.572  0.000  0.001-  46 1.42  16 1.42  48 1.42
  16  0.639  0.134  0.001-  15 1.42  35 1.42  27 1.42
  17  0.972  0.600  0.001-  38 1.42  18 1.42  12 1.42
  18  0.039  0.734  0.001-  43 1.42  41 1.42  17 1.42
  19  0.572  0.600  0.001-  14 1.42  20 1.42  32 1.42
  20  0.639  0.734  0.001-  49 1.42  19 1.42  47 1.42
  21  0.172  0.400  0.000-  22 1.42   8 1.42   6 1.42
  22  0.239  0.534  0.000-  21 1.42  29 1.42  25 1.42
  23  0.372  0.200  0.000-  10 1.42   4 1.42  24 1.42
  24  0.439  0.334  0.000-  13 1.42  31 1.42  23 1.42
  25  0.172  0.600  0.001-  26 1.42  12 1.42  22 1.42
  26  0.239  0.734  0.001-  25 1.42  45 1.42  43 1.42
  27  0.572  0.200  0.001-  10 1.42  28 1.42  16 1.42
  28  0.639  0.334  0.001-  27 1.42  37 1.42  31 1.42
  29  0.372  0.600  0.000-  22 1.42  14 1.42  30 1.42
  30  0.439  0.734  0.001-  47 1.42  29 1.42  45 1.42
  31  0.572  0.400  0.000-  32 1.42  28 1.42  24 1.42
  32  0.639  0.534  0.001-  31 1.42  39 1.42  19 1.42
  33  0.772  0.000  0.001-  34 1.42  48 1.42  50 1.42
  34  0.839  0.134  0.001-  33 1.42   5 1.42  35 1.42
  35  0.772  0.200  0.001-  36 1.42  16 1.42  34 1.42
  36  0.839  0.334  0.001-  35 1.42  11 1.42  37 1.42
  37  0.772  0.400  0.001-  28 1.42  38 1.42  36 1.42
  38  0.839  0.534  0.001-  17 1.42  37 1.42  39 1.42
  39  0.772  0.600  0.001-  40 1.42  38 1.42  32 1.42
  40  0.839  0.734  0.001-  39 1.42  49 1.42  41 1.42
  41  0.972  0.800  0.001-  18 1.42  42 1.42  40 1.42
  42  0.039  0.934  0.001-   3 1.42  41 1.42   1 1.42
  43  0.172  0.800  0.001-  18 1.42  44 1.42  26 1.42
  44  0.239  0.934  0.001-   9 1.42  43 1.42   3 1.42
  45  0.372  0.800  0.001-  26 1.42  46 1.42  30 1.42
  46  0.439  0.934  0.001-  15 1.42  45 1.42   9 1.42
  47  0.572  0.800  0.001-  30 1.42  48 1.42  20 1.42
  48  0.639  0.934  0.001-  47 1.42  33 1.42  15 1.42
  49  0.772  0.800  0.001-  50 1.42  20 1.42  40 1.42
  50  0.839  0.934  0.001-  49 1.42   1 1.42  33 1.42
  51  0.373  0.251  0.187-  52 1.18  53 1.18
  52  0.421  0.189  0.191-  51 1.18
  53  0.325  0.313  0.184-  51 1.18
 
  LATTYP: Found a hexagonal cell.
 ALAT       =    12.3250000000
 C/A-ratio  =     1.6227180527
  
  Lattice vectors:
  
 A1 = (  12.3250000000,   0.0000000000,   0.0000000000)
 A2 = (  -6.1625000000,  10.6737631016,   0.0000000000)
 A3 = (   0.0000000000,   0.0000000000,  20.0000000000)


Analysis of symmetry for initial positions (statically):
=====================================================================
 Subroutine PRICEL returns:
 Original cell was already a primitive cell.
 

 Routine SETGRP: Setting up the symmetry group for a 
 hexagonal supercell.


 Subroutine GETGRP returns: Found  1 space group operations
 (whereof  1 operations were pure point group operations)
 out of a pool of 24 trial point group operations.


The static configuration has the point symmetry C_1 .


Analysis of symmetry for dynamics (positions and initial velocities):
=====================================================================
 Subroutine PRICEL returns:
 Original cell was already a primitive cell.
 

 Routine SETGRP: Setting up the symmetry group for a 
 hexagonal supercell.


 Subroutine GETGRP returns: Found  1 space group operations
 (whereof  1 operations were pure point group operations)
 out of a pool of 24 trial point group operations.


The dynamic configuration has the point symmetry C_1 .


 Subroutine INISYM returns: Found  1 space group operations
 (whereof  1 operations are pure point group operations),
 and found     1 'primitive' translations


----------------------------------------------------------------------------------------

                                     Primitive cell                                     

  volume of cell :    2631.0826

  direct lattice vectors                    reciprocal lattice vectors
    12.325000000  0.000000000  0.000000000     0.081135903  0.046843835  0.000000000
    -6.162500000 10.673763102  0.000000000     0.000000000  0.093687670  0.000000000
     0.000000000  0.000000000 20.000000000     0.000000000  0.000000000  0.050000000

  length of vectors
    12.325000000 12.325000000 20.000000000     0.093687670  0.093687670  0.050000000

  position of ions in fractional coordinates (direct lattice)
     0.972450841  0.000320818  0.000708389
     0.039118382  0.133659505  0.000550216
     0.172443627  0.000295449  0.000624535
     0.239096278  0.133647917  0.000320585
     0.972452058  0.200322012  0.000606523
     0.039128360  0.333643771  0.000555187
     0.172451764  0.200354552  0.000273959
     0.239124359  0.333665720  0.000090325
     0.372465565  0.000324403  0.000567391
     0.439137473  0.133619939  0.000322923
     0.972449824  0.400309362  0.000684513
     0.039124981  0.533636789  0.000716763
     0.372416176  0.400329481  0.000000000
     0.439099602  0.533638981  0.000290518
     0.572443676  0.000312125  0.000699475
     0.639110207  0.133631751  0.000684093
     0.972452703  0.600305653  0.000800361
     0.039124495  0.733640359  0.000818141
     0.572433471  0.600306242  0.000503618
     0.639111888  0.733641879  0.000659881
     0.172454630  0.400318228  0.000361306
     0.239120185  0.533636548  0.000473136
     0.372459750  0.200295993  0.000111246
     0.439107096  0.333673419  0.000069702
     0.172452155  0.600311506  0.000655425
     0.239123371  0.733638574  0.000718912
     0.572431082  0.200289171  0.000516621
     0.639112773  0.333618630  0.000577970
     0.372439808  0.600308022  0.000453556
     0.439116090  0.733637858  0.000617737
     0.572469358  0.400320504  0.000424897
     0.639119408  0.533650873  0.000574513
     0.772445723  0.000315427  0.000745201
     0.839116277  0.133640203  0.000719132
     0.772440513  0.200307432  0.000726291
     0.839120241  0.333635728  0.000731834
     0.772446320  0.400298367  0.000728722
     0.839118980  0.533633964  0.000776376
     0.772456143  0.600308173  0.000744639
     0.839115033  0.733643180  0.000789390
     0.972455313  0.800305582  0.000815291
     0.039114714  0.933643289  0.000747563
     0.172457971  0.800312211  0.000779216
     0.239134551  0.933647193  0.000681063
     0.372451396  0.800316674  0.000689249
     0.439124489  0.933644769  0.000676788
     0.572441101  0.800310054  0.000668168
     0.639115067  0.933638985  0.000734556
     0.772445098  0.800313187  0.000752577
     0.839116614  0.933644338  0.000758538
     0.373021009  0.251226878  0.187288385
     0.420879805  0.189313152  0.190509478
     0.325156981  0.313167186  0.184315641

  ion indices of the primitive-cell ions
   primitive index   ion index
                 1           1
                 2           2
                 3           3
                 4           4
                 5           5
                 6           6
                 7           7
                 8           8
                 9           9
                10          10
                11          11
                12          12
                13          13
                14          14
                15          15
                16          16
                17          17
                18          18
                19          19
                20          20
                21          21
                22          22
                23          23
                24          24
                25          25
                26          26
                27          27
                28          28
                29          29
                30          30
                31          31
                32          32
                33          33
                34          34
                35          35
                36          36
                37          37
                38          38
                39          39
                40          40
                41          41
                42          42
                43          43
                44          44
                45          45
                46          46
                47          47
                48          48
                49          49
                50          50
                51          51
                52          52
                53          53

----------------------------------------------------------------------------------------

 
 
 KPOINTS: auto                                    

Automatic generation of k-mesh.
 Grid dimensions read from file:
 generate k-points for:    1    1    1

 Generating k-lattice:

  Cartesian coordinates                     Fractional coordinates (reciprocal lattice)
     0.081135903  0.046843835  0.000000000     1.000000000 -0.000000000  0.000000000
     0.000000000  0.093687670  0.000000000     0.000000000  1.000000000  0.000000000
     0.000000000  0.000000000  0.050000000     0.000000000  0.000000000  1.000000000

  Length of vectors
     0.093687670  0.093687670  0.050000000

  Shift w.r.t. Gamma in fractional coordinates (k-lattice)
     0.000000000  0.000000000  0.000000000

 
 Subroutine IBZKPT returns following result:
 ===========================================
 
 Found      1 irreducible k-points:
 
 Following reciprocal coordinates:
            Coordinates               Weight
  0.000000  0.000000  0.000000      1.000000
 
 Following cartesian coordinates:
            Coordinates               Weight
  0.000000  0.000000  0.000000      1.000000
 


--------------------------------------------------------------------------------------------------------




 Dimension of arrays:
   k-points           NKPTS =      1   k-points in BZ     NKDIM =      1   number of bands    NBANDS=    168
   number of dos      NEDOS =    301   number of ions     NIONS =     53
   non local maximal  LDIM  =      4   non local SUM 2l+1 LMDIM =      8
   total plane-waves  NPLWV = ******
   max r-space proj   IRMAX =      1   max aug-charges    IRDMAX=   9736
   dimension x,y,z NGX =   128 NGY =  128 NGZ =  210
   dimension x,y,z NGXF=   256 NGYF=  256 NGZF=  420
   support grid    NGXF=   256 NGYF=  256 NGZF=  420
   ions per type =              51   2
   NGX,Y,Z   is equivalent  to a cutoff of  17.27, 17.27, 17.46 a.u.
   NGXF,Y,Z  is equivalent  to a cutoff of  34.53, 34.53, 34.91 a.u.

 SYSTEM =  unknown system                          
 POSCAR =   C  O                                   

 Startparameter for this run:
   NWRITE =      2    write-flag & timer
   PREC   = accura    normal or accurate (medium, high low for compatibility)
   ISTART =      0    job   : 0-new  1-cont  2-samecut
   ICHARG =      2    charge: 1-file 2-atom 10-const
   ISPIN  =      1    spin polarized calculation?
   LNONCOLLINEAR =      F non collinear calculations
   LSORBIT =      F    spin-orbit coupling
   INIWAV =      1    electr: 0-lowe 1-rand  2-diag
   LASPH  =      T    aspherical Exc in radial PAW
 Electronic Relaxation 1
   ENCUT  = 1000.0 eV  73.50 Ry    8.57 a.u.  31.78 31.78 51.57*2*pi/ulx,y,z
   ENINI  = 1000.0     initial cutoff
   ENAUG  =  946.8 eV  augmentation charge cutoff
   NELM   =     60;   NELMIN=  2; NELMDL= -5     # of ELM steps 
   EDIFF  = 0.1E-06   stopping-criterion for ELM
   LREAL  =      F    real-space projection
   NLSPLINE    = F    spline interpolate recip. space projectors
   LCOMPAT=      F    compatible to vasp.4.4
   GGA_COMPAT  = T    GGA compatible to vasp.4.4-vasp.4.6
   LMAXPAW     = -100 max onsite density
   LMAXMIX     =    2 max onsite mixed and CHGCAR
   VOSKOWN=      0    Vosko Wilk Nusair interpolation
   ROPT   =    0.00000   0.00000
 Ionic relaxation
   EDIFFG = 0.1E-05   stopping-criterion for IOM
   NSW    =      0    number of steps for IOM
   NBLOCK =      1;   KBLOCK =      1    inner block; outer block 
   IBRION =     -1    ionic relax: 0-MD 1-quasi-New 2-CG
   NFREE  =      0    steps in history (QN), initial steepest desc. (CG)
   ISIF   =      0    stress and relaxation
   IWAVPR =     10    prediction:  0-non 1-charg 2-wave 3-comb
   ISYM   =      2    0-nonsym 1-usesym 2-fastsym
   LCORR  =      T    Harris-Foulkes like correction to forces

   POTIM  = 0.5000    time-step for ionic-motion
   TEIN   =    0.0    initial temperature
   TEBEG  =    0.0;   TEEND  =   0.0 temperature during run
   SMASS  =  -3.00    Nose mass-parameter (am)
   estimated Nose-frequenzy (Omega)   =  0.10E-29 period in steps = 0.13E+47 mass=  -0.347E-26a.u.
   SCALEE = 1.0000    scale energy and forces
   NPACO  =    256;   APACO  = 16.0  distance and # of slots for P.C.
   PSTRESS=    0.0 pullay stress

  Mass of Ions in am
   POMASS =  12.01 16.00
  Ionic Valenz
   ZVAL   =   4.00  6.00
  Atomic Wigner-Seitz radii
   RWIGS  =  -1.00 -1.00
  virtual crystal weights 
   VCA    =   1.00  1.00
   NELECT =     216.0000    total number of electrons
   NUPDOWN=      -1.0000    fix difference up-down

 DOS related values:
   EMIN   =  10.00;   EMAX   =-10.00  energy-range for DOS
   EFERMI =   0.00
   ISMEAR =     0;   SIGMA  =   0.01  broadening in eV -4-tet -1-fermi 0-gaus

 Electronic relaxation 2 (details)
   IALGO  =     58    algorithm
   LDIAG  =      T    sub-space diagonalisation (order eigenvalues)
   LSUBROT=      F    optimize rotation matrix (better conditioning)
   TURBO    =      0    0=normal 1=particle mesh
   IRESTART =      0    0=no restart 2=restart with 2 vectors
   NREBOOT  =      0    no. of reboots
   NMIN     =      0    reboot dimension
   EREF     =   0.00    reference energy to select bands
   IMIX   =      4    mixing-type and parameters
     AMIX     =   0.40;   BMIX     =  1.00
     AMIX_MAG =   1.60;   BMIX_MAG =  1.00
     AMIN     =   0.10
     WC   =   100.;   INIMIX=   1;  MIXPRE=   1;  MAXMIX= -45

 Intra band minimization:
   WEIMIN = 0.0000     energy-eigenvalue tresh-hold
   EBREAK =  0.15E-09  absolut break condition
   DEPER  =   0.30     relativ break condition  

   TIME   =   0.40     timestep for ELM

  volume/ion in A,a.u.               =      49.64       335.01
  Fermi-wavevector in a.u.,A,eV,Ry     =   0.711510  1.344560  6.887909  0.506247
  Thomas-Fermi vector in A             =   1.798641
 
 Write flags
   LWAVE        =      T    write WAVECAR
   LDOWNSAMPLE  =      F    k-point downsampling of WAVECAR
   LCHARG       =      T    write CHGCAR
   LVTOT        =      F    write LOCPOT, total local potential
   LVHAR        =      F    write LOCPOT, Hartree potential only
   LELF         =      F    write electronic localiz. function (ELF)
   LORBIT       =      0    0 simple, 1 ext, 2 COOP (PROOUT), +10 PAW based schemes


 Dipole corrections
   LMONO  =      F    monopole corrections only (constant potential shift)
   LDIPOL =      F    correct potential (dipole corrections)
   IDIPOL =      0    1-x, 2-y, 3-z, 4-all directions 
   EPSILON=  1.0000000 bulk dielectric constant

 Exchange correlation treatment:
   GGA     =    --    GGA type
   LEXCH   =     8    internal setting for exchange type
   VOSKOWN=      0    Vosko Wilk Nusair interpolation
   LHFCALC =     F    Hartree Fock is set to
   LHFONE  =     F    Hartree Fock one center treatment
   AEXX    =    0.0000 exact exchange contribution

 Linear response parameters
   LEPSILON=     F    determine dielectric tensor
   LRPA    =     F    only Hartree local field effects (RPA)
   LNABLA  =     F    use nabla operator in PAW spheres
   LVEL    =     F    velocity operator in full k-point grid
   LINTERFAST=   F  fast interpolation
   KINTER  =     0    interpolate to denser k-point grid
   CSHIFT  =0.1000    complex shift for real part using Kramers Kronig
   OMEGAMAX=  -1.0    maximum frequency
   DEG_THRESHOLD= 0.2000000E-02 threshold for treating states as degnerate
   RTIME   =   -0.100 relaxation time in fs
  (WPLASMAI=    0.000 imaginary part of plasma frequency in eV, 0.658/RTIME)
   DFIELD  = 0.0000000 0.0000000 0.0000000 field for delta impulse in time
 
 Orbital magnetization related:
   ORBITALMAG=     F  switch on orbital magnetization
   LCHIMAG   =     F  perturbation theory with respect to B field
   DQ        =  0.001000  dq finite difference perturbation B field
   LLRAUG    =     F  two centre corrections for induced B field



--------------------------------------------------------------------------------------------------------


 Static calculation
 charge density and potential will be updated during run
 non-spin polarized calculation
 Conjugate gradient for all bands (Freysoldt, et al. PRB 79, 241103 (2009))
 preconditioned conjugated gradient                                        
 perform sub-space diagonalisation
    before iterative eigenvector-optimisation
 modified Broyden-mixing scheme, WC =      100.0
 initial mixing is a Kerker type mixing with AMIX =  0.4000 and BMIX =      1.0000
 Hartree-type preconditioning will be used
 using additional bands           60
 reciprocal scheme for non local part
 use partial core corrections
 no Harris-corrections to forces 
 use gradient corrections 
 use of overlap-Matrix (Vanderbilt PP)
 Gauss-broadening in eV      SIGMA  =   0.01


--------------------------------------------------------------------------------------------------------


  energy-cutoff  :     1000.00
  volume of cell :     2631.08
      direct lattice vectors                 reciprocal lattice vectors
    12.325000000  0.000000000  0.000000000     0.081135903  0.046843835  0.000000000
    -6.162500000 10.673763102  0.000000000     0.000000000  0.093687670  0.000000000
     0.000000000  0.000000000 20.000000000     0.000000000  0.000000000  0.050000000

  length of vectors
    12.325000000 12.325000000 20.000000000     0.093687670  0.093687670  0.050000000


 
 k-points in units of 2pi/SCALE and weight: auto                                    
   0.00000000  0.00000000  0.00000000       1.000
 
 k-points in reciprocal lattice and weights: auto                                    
   0.00000000  0.00000000  0.00000000       1.000
 
 position of ions in fractional coordinates (direct lattice) 
   0.97245084  0.00032082  0.00070839
   0.03911838  0.13365950  0.00055022
   0.17244363  0.00029545  0.00062454
   0.23909628  0.13364792  0.00032058
   0.97245206  0.20032201  0.00060652
   0.03912836  0.33364377  0.00055519
   0.17245176  0.20035455  0.00027396
   0.23912436  0.33366572  0.00009033
   0.37246557  0.00032440  0.00056739
   0.43913747  0.13361994  0.00032292
   0.97244982  0.40030936  0.00068451
   0.03912498  0.53363679  0.00071676
   0.37241618  0.40032948  0.00000000
   0.43909960  0.53363898  0.00029052
   0.57244368  0.00031213  0.00069947
   0.63911021  0.13363175  0.00068409
   0.97245270  0.60030565  0.00080036
   0.03912449  0.73364036  0.00081814
   0.57243347  0.60030624  0.00050362
   0.63911189  0.73364188  0.00065988
   0.17245463  0.40031823  0.00036131
   0.23912018  0.53363655  0.00047314
   0.37245975  0.20029599  0.00011125
   0.43910710  0.33367342  0.00006970
   0.17245216  0.60031151  0.00065542
   0.23912337  0.73363857  0.00071891
   0.57243108  0.20028917  0.00051662
   0.63911277  0.33361863  0.00057797
   0.37243981  0.60030802  0.00045356
   0.43911609  0.73363786  0.00061774
   0.57246936  0.40032050  0.00042490
   0.63911941  0.53365087  0.00057451
   0.77244572  0.00031543  0.00074520
   0.83911628  0.13364020  0.00071913
   0.77244051  0.20030743  0.00072629
   0.83912024  0.33363573  0.00073183
   0.77244632  0.40029837  0.00072872
   0.83911898  0.53363396  0.00077638
   0.77245614  0.60030817  0.00074464
   0.83911503  0.73364318  0.00078939
   0.97245531  0.80030558  0.00081529
   0.03911471  0.93364329  0.00074756
   0.17245797  0.80031221  0.00077922
   0.23913455  0.93364719  0.00068106
   0.37245140  0.80031667  0.00068925
   0.43912449  0.93364477  0.00067679
   0.57244110  0.80031005  0.00066817
   0.63911507  0.93363899  0.00073456
   0.77244510  0.80031319  0.00075258
   0.83911661  0.93364434  0.00075854
   0.37302101  0.25122688  0.18728838
   0.42087980  0.18931315  0.19050948
   0.32515698  0.31316719  0.18431564
 
 position of ions in cartesian coordinates  (Angst):
  11.98347958  0.00342433  0.01416777
  -0.34154264  1.42664989  0.01100432
   2.12354700  0.00315355  0.01249070
   2.12325634  1.42652621  0.00641170
  10.75098721  2.13818970  0.01213047
  -1.57382270  3.56123457  0.01110375
   0.89078307  2.13853702  0.00547917
   0.89099273  3.56146885  0.00180651
   4.58863896  0.00346260  0.01134782
   4.58893648  1.42622757  0.00645846
   9.51853763  4.27280730  0.01369027
  -2.80632132  5.69591267  0.01433526
   2.12299894  4.27302204  0.00000000
   2.12335237  5.69593607  0.00581036
   7.05344483  0.00333155  0.01398950
   7.05352764  1.42635365  0.01368187
   8.28609598  6.40752033  0.01600723
  -4.03884931  7.83070339  0.01636283
   3.35585531  6.40752662  0.01007237
   3.35598594  7.83071962  0.01319763
  -0.34145776  4.27290193  0.00722612
  -0.34137895  5.69591010  0.00946273
   3.35624236  2.13791198  0.00222492
   3.35573251  3.56155103  0.00139405
  -1.57394684  6.40758280  0.01310850
  -1.57385216  7.83068434  0.01437823
   5.82093107  2.13783916  0.01033241
   5.82114012  3.56096622  0.01155939
   0.89092245  6.40754561  0.00907111
   0.89106251  7.83067670  0.01235474
   4.58870974  4.27292622  0.00849795
   4.58852320  5.69606300  0.01149026
   9.51844972  0.00336679  0.01490402
   9.51855036  1.42644387  0.01438264
   8.28593477  2.13803408  0.01452582
   8.28612680  3.56114872  0.01463668
   7.05356221  4.27268994  0.01457444
   7.05362213  5.69588251  0.01552751
   5.82112285  6.40754723  0.01489279
   5.82101669  7.83073350  0.01578780
   7.05362858  8.54227219  0.01630582
  -5.27148792  9.96548729  0.01495127
  -2.80637951  8.54234295  0.01558431
  -2.80626749  9.96552896  0.01362126
  -0.34148805  8.54239058  0.01378498
  -0.34137657  9.96550309  0.01353576
   2.12342586  8.54231992  0.01336337
   2.12354296  9.96544135  0.01469111
   4.58845581  8.54235337  0.01505154
   4.58852904  9.96549848  0.01517076
   3.04929830  2.68153618  3.74576769
   4.02070129  2.02068374  3.81018955
   2.07766701  3.34267235  3.68631282
 


--------------------------------------------------------------------------------------------------------


 k-point   1 :   0.0000 0.0000 0.0000  plane waves:  189031

 maximum and minimum number of plane-waves per node :    189031   189031

 maximum number of plane-waves:    189031
 maximum index in each direction: 
   IXMAX=   31   IYMAX=   31   IZMAX=   51
   IXMIN=  -31   IYMIN=  -31   IZMIN=  -51


 serial   3D FFT for wavefunctions
 parallel 3D FFT for charge:
    minimum data exchange during FFTs selected (reduces bandwidth)


 total amount of memory used by VASP MPI-rank0   556209. kBytes
=======================================================================

   base      :      30000. kBytes
   nonl-proj :     184518. kBytes
   fftplans  :      31725. kBytes
   grid      :     282516. kBytes
   one-center:        162. kBytes
   wavefun   :      27288. kBytes
 
     INWAV:  cpu time    0.0000: real time    0.0000
 Broyden mixing: mesh for mixing (old mesh)
   NGX = 63   NGY = 63   NGZ =103
  (NGX  =256   NGY  =256   NGZ  =420)
  gives a total of 408807 points

 initial charge density was supplied:
 charge density of overlapping atoms calculated
 number of electron     216.0000000 magnetization 
 keeping initial charge density in first step


--------------------------------------------------------------------------------------------------------


 Maximum index for augmentation-charges          459 (set IRDMAX)


--------------------------------------------------------------------------------------------------------


 First call to EWALD:  gamma=   0.128
 Maximum number of real-space cells 3x 3x 2
 Maximum number of reciprocal cells 3x 3x 4

    FEWALD:  cpu time    0.0021: real time    0.0021


--------------------------------------- Iteration      1(   1)  ---------------------------------------


    POTLOK:  cpu time    1.4618: real time    1.4703
    SETDIJ:  cpu time    0.2485: real time    0.2494
    TRIAL :  cpu time   21.8127: real time   21.9747
    CORREC:  cpu time    0.0007: real time    0.0007
    --------------------------------------------
      LOOP:  cpu time   23.5332: real time   23.7177

 eigenvalue-minimisations  :   336
 total energy-change (2. order) : 0.2415720E+04  (-0.1181364E+05)
 number of electron     216.0000000 magnetization 
 augmentation part      216.0000000 magnetization 

 Free energy of the ion-electron system (eV)
  ---------------------------------------------------
  alpha Z        PSCENC =        59.93625244
  Ewald energy   TEWEN  =     33525.66468612
  -Hartree energ DENC   =    -39700.97097628
  -exchange      EXHF   =         0.00000000
  -V(xc)+E(xc)   XCENC  =       602.89744126
  PAW double counting   =      6339.73130699    -6197.22120962
  entropy T*S    EENTRO =        -0.00000000
  eigenvalues    EBANDS =      -583.84072550
  atomic energy  EATOM  =      8369.52358910
  ---------------------------------------------------
  free energy    TOTEN  =      2415.72036451 eV

  energy without entropy =     2415.72036451  energy(sigma->0) =     2415.72036451


--------------------------------------------------------------------------------------------------------




--------------------------------------- Iteration      1(   2)  ---------------------------------------


    TRIAL :  cpu time   35.5351: real time   35.8577
    CORREC:  cpu time    0.0001: real time    0.0001
    --------------------------------------------
      LOOP:  cpu time   35.5892: real time   35.9177

 eigenvalue-minimisations  :   672
 total energy-change (2. order) :-0.2475388E+04  (-0.2363373E+04)
 number of electron     216.0000000 magnetization 
 augmentation part      216.0000000 magnetization 

 Free energy of the ion-electron system (eV)
  ---------------------------------------------------
  alpha Z        PSCENC =        59.93625244
  Ewald energy   TEWEN  =     33525.66468612
  -Hartree energ DENC   =    -39700.97097628
  -exchange      EXHF   =         0.00000000
  -V(xc)+E(xc)   XCENC  =       602.89744126
  PAW double counting   =      6339.73130699    -6197.22120962
  entropy T*S    EENTRO =        -0.00000000
  eigenvalues    EBANDS =     -3059.22907069
  atomic energy  EATOM  =      8369.52358910
  ---------------------------------------------------
  free energy    TOTEN  =       -59.66798068 eV

  energy without entropy =      -59.66798068  energy(sigma->0) =      -59.66798068


--------------------------------------------------------------------------------------------------------




--------------------------------------- Iteration      1(   3)  ---------------------------------------


    TRIAL :  cpu time   24.0700: real time   24.2507
    CORREC:  cpu time    0.0001: real time    0.0001
    --------------------------------------------
      LOOP:  cpu time   24.1312: real time   24.3139

 eigenvalue-minimisations  :   392
 total energy-change (2. order) :-0.5354037E+03  (-0.5326200E+03)
 number of electron     216.0000000 magnetization 
 augmentation part      216.0000000 magnetization 

 Free energy of the ion-electron system (eV)
  ---------------------------------------------------
  alpha Z        PSCENC =        59.93625244
  Ewald energy   TEWEN  =     33525.66468612
  -Hartree energ DENC   =    -39700.97097628
  -exchange      EXHF   =         0.00000000
  -V(xc)+E(xc)   XCENC  =       602.89744126
  PAW double counting   =      6339.73130699    -6197.22120962
  entropy T*S    EENTRO =        -0.00000000
  eigenvalues    EBANDS =     -3594.63273383
  atomic energy  EATOM  =      8369.52358910
  ---------------------------------------------------
  free energy    TOTEN  =      -595.07164382 eV

  energy without entropy =     -595.07164382  energy(sigma->0) =     -595.07164382


--------------------------------------------------------------------------------------------------------




--------------------------------------- Iteration      1(   4)  ---------------------------------------


    TRIAL :  cpu time   26.3151: real time   26.5605
    CORREC:  cpu time    0.0001: real time    0.0001
    --------------------------------------------
      LOOP:  cpu time   26.4156: real time   26.6639

 eigenvalue-minimisations  :   448
 total energy-change (2. order) :-0.2469485E+02  (-0.2454350E+02)
 number of electron     216.0000000 magnetization 
 augmentation part      216.0000000 magnetization 

 Free energy of the ion-electron system (eV)
  ---------------------------------------------------
  alpha Z        PSCENC =        59.93625244
  Ewald energy   TEWEN  =     33525.66468612
  -Hartree energ DENC   =    -39700.97097628
  -exchange      EXHF   =         0.00000000
  -V(xc)+E(xc)   XCENC  =       602.89744126
  PAW double counting   =      6339.73130699    -6197.22120962
  entropy T*S    EENTRO =        -0.00000000
  eigenvalues    EBANDS =     -3619.32758814
  atomic energy  EATOM  =      8369.52358910
  ---------------------------------------------------
  free energy    TOTEN  =      -619.76649813 eV

  energy without entropy =     -619.76649813  energy(sigma->0) =     -619.76649813


--------------------------------------------------------------------------------------------------------




--------------------------------------- Iteration      1(   5)  ---------------------------------------


    TRIAL :  cpu time   26.3676: real time   26.5750
    CORREC:  cpu time    0.0001: real time    0.0001
    CHARGE:  cpu time    2.2887: real time    2.3048
    --------------------------------------------
      LOOP:  cpu time   28.7259: real time   28.9643

 eigenvalue-minimisations  :   448
 total energy-change (2. order) :-0.8629130E+00  (-0.8586104E+00)
 number of electron     216.0000000 magnetization 
 augmentation part       -0.4297394 magnetization 

 Free energy of the ion-electron system (eV)
  ---------------------------------------------------
  alpha Z        PSCENC =        59.93625244
  Ewald energy   TEWEN  =     33525.66468612
  -Hartree energ DENC   =    -39700.97097628
  -exchange      EXHF   =         0.00000000
  -V(xc)+E(xc)   XCENC  =       602.89744126
  PAW double counting   =      6339.73130699    -6197.22120962
  entropy T*S    EENTRO =        -0.00000000
  eigenvalues    EBANDS =     -3620.19050112
  atomic energy  EATOM  =      8369.52358910
  ---------------------------------------------------
  free energy    TOTEN  =      -620.62941111 eV

  energy without entropy =     -620.62941111  energy(sigma->0) =     -620.62941111


--------------------------------------------------------------------------------------------------------




--------------------------------------- Iteration      1(   6)  ---------------------------------------


    POTLOK:  cpu time    1.4419: real time    1.4506
    SETDIJ:  cpu time    0.2423: real time    0.2430
    TRIAL :  cpu time   15.4309: real time   15.5772
    CORREC:  cpu time    7.1125: real time    7.1696
    CHARGE:  cpu time    2.2797: real time    2.3041
    --------------------------------------------
      LOOP:  cpu time   26.6152: real time   26.8567

 eigenvalue-minimisations  :     0
 total energy-change (2. order) : 0.1040355E+03  (-0.1213192E+02)
 number of electron     216.0000000 magnetization 
 augmentation part       -0.4884505 magnetization 

 Free energy of the ion-electron system (eV)
  ---------------------------------------------------
  alpha Z        PSCENC =        59.93625244
  Ewald energy   TEWEN  =     33525.66468612
  -Hartree energ DENC   =    -41032.83018682
  -exchange      EXHF   =         0.00000000
  -V(xc)+E(xc)   XCENC  =       669.69652314
  PAW double counting   =    113686.45684062  -113549.68397162
  entropy T*S    EENTRO =        -0.00000000
  eigenvalues    EBANDS =     -2245.35768532
  atomic energy  EATOM  =      8369.52358910
  ---------------------------------------------------
  free energy    TOTEN  =      -516.59395234 eV

  energy without entropy =     -516.59395234  energy(sigma->0) =     -516.59395234


--------------------------------------------------------------------------------------------------------




--------------------------------------- Iteration      1(   7)  ---------------------------------------


    POTLOK:  cpu time    1.4319: real time    1.4395
    SETDIJ:  cpu time    0.2412: real time    0.2420
    TRIAL :  cpu time   15.4745: real time   15.5871
    CORREC:  cpu time    7.1151: real time    7.1821
    CHARGE:  cpu time    2.2855: real time    2.3015
    --------------------------------------------
      LOOP:  cpu time   26.6686: real time   26.8777

 eigenvalue-minimisations  :     0
 total energy-change (2. order) :-0.1214609E+02  (-0.1567843E+01)
 number of electron     216.0000000 magnetization 
 augmentation part       -0.5192398 magnetization 

 Free energy of the ion-electron system (eV)
  ---------------------------------------------------
  alpha Z        PSCENC =        59.93625244
  Ewald energy   TEWEN  =     33525.66468612
  -Hartree energ DENC   =    -40610.94055957
  -exchange      EXHF   =         0.00000000
  -V(xc)+E(xc)   XCENC  =       649.75938310
  PAW double counting   =    131901.94469544  -131762.41374433
  entropy T*S    EENTRO =        -0.00000000
  eigenvalues    EBANDS =     -2662.21434913
  atomic energy  EATOM  =      8369.52358910
  ---------------------------------------------------
  free energy    TOTEN  =      -528.74004684 eV

  energy without entropy =     -528.74004684  energy(sigma->0) =     -528.74004684


--------------------------------------------------------------------------------------------------------




--------------------------------------- Iteration      1(   8)  ---------------------------------------


    POTLOK:  cpu time    1.4347: real time    1.4419
    SETDIJ:  cpu time    0.2406: real time    0.2413
    TRIAL :  cpu time   15.4695: real time   15.5824
    CORREC:  cpu time    7.1187: real time    7.1679
    CHARGE:  cpu time    2.2858: real time    2.3015
    --------------------------------------------
      LOOP:  cpu time   26.5929: real time   26.7816

 eigenvalue-minimisations  :     0
 total energy-change (2. order) :-0.1568446E+01  (-0.4972902E+00)
 number of electron     216.0000000 magnetization 
 augmentation part       -0.5179787 magnetization 

 Free energy of the ion-electron system (eV)
  ---------------------------------------------------
  alpha Z        PSCENC =        59.93625244
  Ewald energy   TEWEN  =     33525.66468612
  -Hartree energ DENC   =    -40583.71491618
  -exchange      EXHF   =         0.00000000
  -V(xc)+E(xc)   XCENC  =       648.21813115
  PAW double counting   =    140102.71493660  -139962.70392961
  entropy T*S    EENTRO =        -0.00000000
  eigenvalues    EBANDS =     -2689.94724238
  atomic energy  EATOM  =      8369.52358910
  ---------------------------------------------------
  free energy    TOTEN  =      -530.30849277 eV

  energy without entropy =     -530.30849277  energy(sigma->0) =     -530.30849277


--------------------------------------------------------------------------------------------------------




--------------------------------------- Iteration      1(   9)  ---------------------------------------


    POTLOK:  cpu time    1.4364: real time    1.4441
    SETDIJ:  cpu time    0.2397: real time    0.2405
    TRIAL :  cpu time   15.4760: real time   15.5862
    CORREC:  cpu time    7.1184: real time    7.1741
    CHARGE:  cpu time    2.2984: real time    2.3144
    --------------------------------------------
      LOOP:  cpu time   26.6015: real time   26.7947

 eigenvalue-minimisations  :     0
 total energy-change (2. order) :-0.4970544E+00  (-0.1897331E+00)
 number of electron     216.0000000 magnetization 
 augmentation part       -0.5133887 magnetization 

 Free energy of the ion-electron system (eV)
  ---------------------------------------------------
  alpha Z        PSCENC =        59.93625244
  Ewald energy   TEWEN  =     33525.66468612
  -Hartree energ DENC   =    -40591.61000781
  -exchange      EXHF   =         0.00000000
  -V(xc)+E(xc)   XCENC  =       648.00916933
  PAW double counting   =    146227.11886764  -146086.91535509
  entropy T*S    EENTRO =        -0.00000000
  eigenvalues    EBANDS =     -2682.53274887
  atomic energy  EATOM  =      8369.52358910
  ---------------------------------------------------
  free energy    TOTEN  =      -530.80554714 eV

  energy without entropy =     -530.80554714  energy(sigma->0) =     -530.80554714


--------------------------------------------------------------------------------------------------------




--------------------------------------- Iteration      1(  10)  ---------------------------------------


    POTLOK:  cpu time    1.4405: real time    1.4487
    SETDIJ:  cpu time    0.2425: real time    0.2434
    TRIAL :  cpu time   15.4860: real time   15.5957
    CORREC:  cpu time    7.1118: real time    7.1750
    CHARGE:  cpu time    2.2853: real time    2.3010
    --------------------------------------------
      LOOP:  cpu time   26.5907: real time   26.8106

 eigenvalue-minimisations  :     0
 total energy-change (2. order) :-0.1895483E+00  (-0.7970270E-01)
 number of electron     216.0000000 magnetization 
 augmentation part       -0.5075593 magnetization 

 Free energy of the ion-electron system (eV)
  ---------------------------------------------------
  alpha Z        PSCENC =        59.93625244
  Ewald energy   TEWEN  =     33525.66468612
  -Hartree energ DENC   =    -40591.39799565
  -exchange      EXHF   =         0.00000000
  -V(xc)+E(xc)   XCENC  =       647.81639231
  PAW double counting   =    148600.81095359  -148460.51345731
  entropy T*S    EENTRO =        -0.00000000
  eigenvalues    EBANDS =     -2682.83551608
  atomic energy  EATOM  =      8369.52358910
  ---------------------------------------------------
  free energy    TOTEN  =      -530.99509548 eV

  energy without entropy =     -530.99509548  energy(sigma->0) =     -530.99509548


--------------------------------------------------------------------------------------------------------




--------------------------------------- Iteration      1(  11)  ---------------------------------------


    POTLOK:  cpu time    1.4411: real time    1.4488
    SETDIJ:  cpu time    0.2377: real time    0.2386
    TRIAL :  cpu time   15.4326: real time   15.5822
    CORREC:  cpu time    7.1282: real time    7.1758
    CHARGE:  cpu time    2.3049: real time    2.3213
    --------------------------------------------
      LOOP:  cpu time   26.6220: real time   26.8587

 eigenvalue-minimisations  :     0
 total energy-change (2. order) :-0.7955091E-01  (-0.3162306E-01)
 number of electron     216.0000000 magnetization 
 augmentation part       -0.5041087 magnetization 

 Free energy of the ion-electron system (eV)
  ---------------------------------------------------
  alpha Z        PSCENC =        59.93625244
  Ewald energy   TEWEN  =     33525.66468612
  -Hartree energ DENC   =    -40586.01606857
  -exchange      EXHF   =         0.00000000
  -V(xc)+E(xc)   XCENC  =       647.67538776
  PAW double counting   =    148548.83803172  -148408.53795869
  entropy T*S    EENTRO =        -0.00000000
  eigenvalues    EBANDS =     -2688.15856628
  atomic energy  EATOM  =      8369.52358910
  ---------------------------------------------------
  free energy    TOTEN  =      -531.07464638 eV

  energy without entropy =     -531.07464638  energy(sigma->0) =     -531.07464638


--------------------------------------------------------------------------------------------------------




--------------------------------------- Iteration      1(  12)  ---------------------------------------


    POTLOK:  cpu time    1.4467: real time    1.4544
    SETDIJ:  cpu time    0.2298: real time    0.2306
    TRIAL :  cpu time   15.4549: real time   15.5700
    CORREC:  cpu time    7.1236: real time    7.1752
    CHARGE:  cpu time    2.2892: real time    2.3056
    --------------------------------------------
      LOOP:  cpu time   26.6541: real time   26.8519

 eigenvalue-minimisations  :     0
 total energy-change (2. order) :-0.3158840E-01  (-0.1020845E-01)
 number of electron     216.0000000 magnetization 
 augmentation part       -0.5041731 magnetization 

 Free energy of the ion-electron system (eV)
  ---------------------------------------------------
  alpha Z        PSCENC =        59.93625244
  Ewald energy   TEWEN  =     33525.66468612
  -Hartree energ DENC   =    -40581.64862844
  -exchange      EXHF   =         0.00000000
  -V(xc)+E(xc)   XCENC  =       647.57422408
  PAW double counting   =    147885.21948590  -147744.94341955
  entropy T*S    EENTRO =        -0.00000000
  eigenvalues    EBANDS =     -2692.43242444
  atomic energy  EATOM  =      8369.52358910
  ---------------------------------------------------
  free energy    TOTEN  =      -531.10623478 eV

  energy without entropy =     -531.10623478  energy(sigma->0) =     -531.10623478


--------------------------------------------------------------------------------------------------------




--------------------------------------- Iteration      1(  13)  ---------------------------------------


    POTLOK:  cpu time    1.4452: real time    1.4527
    SETDIJ:  cpu time    0.2287: real time    0.2294
    TRIAL :  cpu time   15.4469: real time   15.5936
    CORREC:  cpu time    7.1030: real time    7.1695
    CHARGE:  cpu time    2.2718: real time    2.2999
    --------------------------------------------
      LOOP:  cpu time   26.5436: real time   26.7984

 eigenvalue-minimisations  :     0
 total energy-change (2. order) :-0.1021493E-01  (-0.2893673E-02)
 number of electron     216.0000000 magnetization 
 augmentation part       -0.5047930 magnetization 

 Free energy of the ion-electron system (eV)
  ---------------------------------------------------
  alpha Z        PSCENC =        59.93625244
  Ewald energy   TEWEN  =     33525.66468612
  -Hartree energ DENC   =    -40580.14501416
  -exchange      EXHF   =         0.00000000
  -V(xc)+E(xc)   XCENC  =       647.52124552
  PAW double counting   =    147375.08133064  -147234.81711022
  entropy T*S    EENTRO =        -0.00000000
  eigenvalues    EBANDS =     -2693.88142916
  atomic energy  EATOM  =      8369.52358910
  ---------------------------------------------------
  free energy    TOTEN  =      -531.11644972 eV

  energy without entropy =     -531.11644972  energy(sigma->0) =     -531.11644972


--------------------------------------------------------------------------------------------------------




--------------------------------------- Iteration      1(  14)  ---------------------------------------


    POTLOK:  cpu time    1.4416: real time    1.4494
    SETDIJ:  cpu time    0.2394: real time    0.2402
    TRIAL :  cpu time   15.4685: real time   15.6092
    CORREC:  cpu time    7.1248: real time    7.1782
    CHARGE:  cpu time    2.2722: real time    2.3006
    --------------------------------------------
      LOOP:  cpu time   26.5847: real time   26.8416

 eigenvalue-minimisations  :     0
 total energy-change (2. order) :-0.2898153E-02  (-0.7303740E-03)
 number of electron     216.0000000 magnetization 
 augmentation part       -0.5050375 magnetization 

 Free energy of the ion-electron system (eV)
  ---------------------------------------------------
  alpha Z        PSCENC =        59.93625244
  Ewald energy   TEWEN  =     33525.66468612
  -Hartree energ DENC   =    -40580.07038737
  -exchange      EXHF   =         0.00000000
  -V(xc)+E(xc)   XCENC  =       647.51699301
  PAW double counting   =    147132.01676784  -146991.75840094
  entropy T*S    EENTRO =        -0.00000000
  eigenvalues    EBANDS =     -2693.94884808
  atomic energy  EATOM  =      8369.52358910
  ---------------------------------------------------
  free energy    TOTEN  =      -531.11934787 eV

  energy without entropy =     -531.11934787  energy(sigma->0) =     -531.11934787


--------------------------------------------------------------------------------------------------------




--------------------------------------- Iteration      1(  15)  ---------------------------------------


    POTLOK:  cpu time    1.4602: real time    1.4680
    SETDIJ:  cpu time    0.2162: real time    0.2169
    TRIAL :  cpu time   15.4748: real time   15.5855
    CORREC:  cpu time    7.1320: real time    7.1854
    CHARGE:  cpu time    2.2808: real time    2.3153
    --------------------------------------------
      LOOP:  cpu time   26.7146: real time   26.9244

 eigenvalue-minimisations  :     0
 total energy-change (2. order) :-0.7307974E-03  (-0.1927219E-03)
 number of electron     216.0000000 magnetization 
 augmentation part       -0.5051630 magnetization 

 Free energy of the ion-electron system (eV)
  ---------------------------------------------------
  alpha Z        PSCENC =        59.93625244
  Ewald energy   TEWEN  =     33525.66468612
  -Hartree energ DENC   =    -40579.95801594
  -exchange      EXHF   =         0.00000000
  -V(xc)+E(xc)   XCENC  =       647.51712563
  PAW double counting   =    147035.48554340  -146895.22972928
  entropy T*S    EENTRO =        -0.00000000
  eigenvalues    EBANDS =     -2694.05953014
  atomic energy  EATOM  =      8369.52358910
  ---------------------------------------------------
  free energy    TOTEN  =      -531.12007867 eV

  energy without entropy =     -531.12007867  energy(sigma->0) =     -531.12007867


--------------------------------------------------------------------------------------------------------




--------------------------------------- Iteration      1(  16)  ---------------------------------------


    POTLOK:  cpu time    1.4407: real time    1.4484
    SETDIJ:  cpu time    0.2414: real time    0.2422
    TRIAL :  cpu time   15.4695: real time   15.5925
    CORREC:  cpu time    7.1173: real time    7.1667
    CHARGE:  cpu time    2.2867: real time    2.3028
    --------------------------------------------
      LOOP:  cpu time   26.6161: real time   26.8156

 eigenvalue-minimisations  :     0
 total energy-change (2. order) :-0.1934012E-03  (-0.5834425E-04)
 number of electron     216.0000000 magnetization 
 augmentation part       -0.5051861 magnetization 

 Free energy of the ion-electron system (eV)
  ---------------------------------------------------
  alpha Z        PSCENC =        59.93625244
  Ewald energy   TEWEN  =     33525.66468612
  -Hartree energ DENC   =    -40579.86774985
  -exchange      EXHF   =         0.00000000
  -V(xc)+E(xc)   XCENC  =       647.51518069
  PAW double counting   =    146979.04828891  -146838.79293595
  entropy T*S    EENTRO =        -0.00000000
  eigenvalues    EBANDS =     -2694.14758353
  atomic energy  EATOM  =      8369.52358910
  ---------------------------------------------------
  free energy    TOTEN  =      -531.12027207 eV

  energy without entropy =     -531.12027207  energy(sigma->0) =     -531.12027207


--------------------------------------------------------------------------------------------------------




--------------------------------------- Iteration      1(  17)  ---------------------------------------


    POTLOK:  cpu time    1.4451: real time    1.4537
    SETDIJ:  cpu time    0.2339: real time    0.2346
    TRIAL :  cpu time   15.4732: real time   15.5876
    CORREC:  cpu time    7.1256: real time    7.1712
    CHARGE:  cpu time    2.2867: real time    2.3029
    --------------------------------------------
      LOOP:  cpu time   26.5747: real time   26.7845

 eigenvalue-minimisations  :     0
 total energy-change (2. order) :-0.5779514E-04  (-0.2143632E-04)
 number of electron     216.0000000 magnetization 
 augmentation part       -0.5051946 magnetization 

 Free energy of the ion-electron system (eV)
  ---------------------------------------------------
  alpha Z        PSCENC =        59.93625244
  Ewald energy   TEWEN  =     33525.66468612
  -Hartree energ DENC   =    -40579.99223761
  -exchange      EXHF   =         0.00000000
  -V(xc)+E(xc)   XCENC  =       647.52204598
  PAW double counting   =    146939.11237099  -146798.85775773
  entropy T*S    EENTRO =        -0.00000000
  eigenvalues    EBANDS =     -2694.02927916
  atomic energy  EATOM  =      8369.52358910
  ---------------------------------------------------
  free energy    TOTEN  =      -531.12032986 eV

  energy without entropy =     -531.12032986  energy(sigma->0) =     -531.12032986


--------------------------------------------------------------------------------------------------------




--------------------------------------- Iteration      1(  18)  ---------------------------------------


    POTLOK:  cpu time    1.4426: real time    1.4501
    SETDIJ:  cpu time    0.2346: real time    0.2354
    TRIAL :  cpu time   15.4595: real time   15.5922
    CORREC:  cpu time    7.1134: real time    7.1823
    CHARGE:  cpu time    2.3146: real time    2.3339
    --------------------------------------------
      LOOP:  cpu time   26.6557: real time   26.8876

 eigenvalue-minimisations  :     0
 total energy-change (2. order) :-0.2067079E-04  (-0.8057949E-05)
 number of electron     216.0000000 magnetization 
 augmentation part       -0.5052234 magnetization 

 Free energy of the ion-electron system (eV)
  ---------------------------------------------------
  alpha Z        PSCENC =        59.93625244
  Ewald energy   TEWEN  =     33525.66468612
  -Hartree energ DENC   =    -40580.05902012
  -exchange      EXHF   =         0.00000000
  -V(xc)+E(xc)   XCENC  =       647.52513979
  PAW double counting   =    146921.87766699  -146781.62301235
  entropy T*S    EENTRO =        -0.00000000
  eigenvalues    EBANDS =     -2693.96565249
  atomic energy  EATOM  =      8369.52358910
  ---------------------------------------------------
  free energy    TOTEN  =      -531.12035053 eV

  energy without entropy =     -531.12035053  energy(sigma->0) =     -531.12035053


--------------------------------------------------------------------------------------------------------




--------------------------------------- Iteration      1(  19)  ---------------------------------------


    POTLOK:  cpu time    1.4415: real time    1.4491
    SETDIJ:  cpu time    0.2371: real time    0.2379
    TRIAL :  cpu time   15.4839: real time   15.5982
    CORREC:  cpu time    7.1096: real time    7.1756
    CHARGE:  cpu time    2.2904: real time    2.3061
    --------------------------------------------
      LOOP:  cpu time   26.6336: real time   26.8393

 eigenvalue-minimisations  :     0
 total energy-change (2. order) :-0.7745897E-05  (-0.3715014E-05)
 number of electron     216.0000000 magnetization 
 augmentation part       -0.5052357 magnetization 

 Free energy of the ion-electron system (eV)
  ---------------------------------------------------
  alpha Z        PSCENC =        59.93625244
  Ewald energy   TEWEN  =     33525.66468612
  -Hartree energ DENC   =    -40580.06010424
  -exchange      EXHF   =         0.00000000
  -V(xc)+E(xc)   XCENC  =       647.52462273
  PAW double counting   =    146923.65636723  -146783.40118360
  entropy T*S    EENTRO =        -0.00000000
  eigenvalues    EBANDS =     -2693.96458806
  atomic energy  EATOM  =      8369.52358910
  ---------------------------------------------------
  free energy    TOTEN  =      -531.12035828 eV

  energy without entropy =     -531.12035828  energy(sigma->0) =     -531.12035828


--------------------------------------------------------------------------------------------------------




--------------------------------------- Iteration      1(  20)  ---------------------------------------


    POTLOK:  cpu time    1.4414: real time    1.4490
    SETDIJ:  cpu time    0.2516: real time    0.2525
    TRIAL :  cpu time   15.4896: real time   15.6054
    CORREC:  cpu time    7.1041: real time    7.1655
    CHARGE:  cpu time    2.2778: real time    2.3017
    --------------------------------------------
      LOOP:  cpu time   26.6479: real time   26.8588

 eigenvalue-minimisations  :     0
 total energy-change (2. order) :-0.3028923E-05  (-0.7282176E-06)
 number of electron     216.0000000 magnetization 
 augmentation part       -0.5052416 magnetization 

 Free energy of the ion-electron system (eV)
  ---------------------------------------------------
  alpha Z        PSCENC =        59.93625244
  Ewald energy   TEWEN  =     33525.66468612
  -Hartree energ DENC   =    -40580.09835614
  -exchange      EXHF   =         0.00000000
  -V(xc)+E(xc)   XCENC  =       647.52595022
  PAW double counting   =    146932.51746224  -146792.26213076
  entropy T*S    EENTRO =        -0.00000000
  eigenvalues    EBANDS =     -2693.92781453
  atomic energy  EATOM  =      8369.52358910
  ---------------------------------------------------
  free energy    TOTEN  =      -531.12036131 eV

  energy without entropy =     -531.12036131  energy(sigma->0) =     -531.12036131


--------------------------------------------------------------------------------------------------------




--------------------------------------- Iteration      1(  21)  ---------------------------------------


    POTLOK:  cpu time    1.4424: real time    1.4503
    SETDIJ:  cpu time    0.2348: real time    0.2357
    TRIAL :  cpu time   15.4567: real time   15.5834
    CORREC:  cpu time    7.1265: real time    7.1746
    CHARGE:  cpu time    2.2750: real time    2.2988
    --------------------------------------------
      LOOP:  cpu time   26.5904: real time   26.8101

 eigenvalue-minimisations  :     0
 total energy-change (2. order) :-0.7127237E-06  (-0.3611893E-06)
 number of electron     216.0000000 magnetization 
 augmentation part       -0.5052394 magnetization 

 Free energy of the ion-electron system (eV)
  ---------------------------------------------------
  alpha Z        PSCENC =        59.93625244
  Ewald energy   TEWEN  =     33525.66468612
  -Hartree energ DENC   =    -40580.09682768
  -exchange      EXHF   =         0.00000000
  -V(xc)+E(xc)   XCENC  =       647.52553652
  PAW double counting   =    146935.62182809  -146795.36640882
  entropy T*S    EENTRO =        -0.00000000
  eigenvalues    EBANDS =     -2693.92901779
  atomic energy  EATOM  =      8369.52358910
  ---------------------------------------------------
  free energy    TOTEN  =      -531.12036202 eV

  energy without entropy =     -531.12036202  energy(sigma->0) =     -531.12036202


--------------------------------------------------------------------------------------------------------




--------------------------------------- Iteration      1(  22)  ---------------------------------------


    POTLOK:  cpu time    1.4449: real time    1.4528
    SETDIJ:  cpu time    0.2313: real time    0.2320
    TRIAL :  cpu time   15.4602: real time   15.5773
    CORREC:  cpu time    7.1280: real time    7.1763
    CHARGE:  cpu time    2.2842: real time    2.3008
    --------------------------------------------
      LOOP:  cpu time   26.6691: real time   26.8614

 eigenvalue-minimisations  :     0
 total energy-change (2. order) :-0.3199675E-06  (-0.1583060E-06)
 number of electron     216.0000000 magnetization 
 augmentation part       -0.5052340 magnetization 

 Free energy of the ion-electron system (eV)
  ---------------------------------------------------
  alpha Z        PSCENC =        59.93625244
  Ewald energy   TEWEN  =     33525.66468612
  -Hartree energ DENC   =    -40580.09247253
  -exchange      EXHF   =         0.00000000
  -V(xc)+E(xc)   XCENC  =       647.52526026
  PAW double counting   =    146936.32265193  -146796.06724402
  entropy T*S    EENTRO =        -0.00000000
  eigenvalues    EBANDS =     -2693.93308564
  atomic energy  EATOM  =      8369.52358910
  ---------------------------------------------------
  free energy    TOTEN  =      -531.12036234 eV

  energy without entropy =     -531.12036234  energy(sigma->0) =     -531.12036234


--------------------------------------------------------------------------------------------------------




--------------------------------------- Iteration      1(  23)  ---------------------------------------


    POTLOK:  cpu time    1.4416: real time    1.4495
    SETDIJ:  cpu time    0.2350: real time    0.2358
    TRIAL :  cpu time   15.4690: real time   15.5849
    CORREC:  cpu time    7.1244: real time    7.1799
    CHARGE:  cpu time    2.2868: real time    2.3034
    --------------------------------------------
      LOOP:  cpu time   26.6117: real time   26.8122

 eigenvalue-minimisations  :     0
 total energy-change (2. order) :-0.1327717E-06  (-0.5845323E-07)
 number of electron     216.0000000 magnetization 
 augmentation part       -0.5052307 magnetization 

 Free energy of the ion-electron system (eV)
  ---------------------------------------------------
  alpha Z        PSCENC =        59.93625244
  Ewald energy   TEWEN  =     33525.66468612
  -Hartree energ DENC   =    -40580.09029135
  -exchange      EXHF   =         0.00000000
  -V(xc)+E(xc)   XCENC  =       647.52520929
  PAW double counting   =    146936.33904078  -146796.08369070
  entropy T*S    EENTRO =        -0.00000000
  eigenvalues    EBANDS =     -2693.93515815
  atomic energy  EATOM  =      8369.52358910
  ---------------------------------------------------
  free energy    TOTEN  =      -531.12036247 eV

  energy without entropy =     -531.12036247  energy(sigma->0) =     -531.12036247


--------------------------------------------------------------------------------------------------------




--------------------------------------- Iteration      1(  24)  ---------------------------------------


    POTLOK:  cpu time    1.4456: real time    1.4621
    SETDIJ:  cpu time    0.2224: real time    0.2236
    TRIAL :  cpu time   15.4321: real time   15.5829
    CORREC:  cpu time    7.1173: real time    7.1901
    EDDIAG:  cpu time    3.2054: real time    3.2311
    CHARGE:  cpu time    2.2708: real time    2.2961
    --------------------------------------------
      LOOP:  cpu time   29.7816: real time   30.0754

 eigenvalue-minimisations  :     0
 total energy-change (2. order) :-0.2817251E-07  (-0.1829820E-07)
 number of electron     216.0000000 magnetization 
 augmentation part       -0.5052307 magnetization 

 Free energy of the ion-electron system (eV)
  ---------------------------------------------------
  alpha Z        PSCENC =        59.93625244
  Ewald energy   TEWEN  =     33525.66468612
  -Hartree energ DENC   =    -40580.08874876
  -exchange      EXHF   =         0.00000000
  -V(xc)+E(xc)   XCENC  =       647.52517729
  PAW double counting   =    146936.29004619  -146796.03473220
  entropy T*S    EENTRO =        -0.00000000
  eigenvalues    EBANDS =     -2693.93663268
  atomic energy  EATOM  =      8369.52358910
  ---------------------------------------------------
  free energy    TOTEN  =      -531.12036250 eV

  energy without entropy =     -531.12036250  energy(sigma->0) =     -531.12036250


--------------------------------------------------------------------------------------------------------


  average scaling for gradient   0.8257


 average (electrostatic) potential at core
  the test charge radii are     0.5770  0.5955
  (the norm of the test charge is              1.0000)
       1 -87.7295       2 -87.7249       3 -87.7338       4 -87.7398       5 -87.7201
       6 -87.7163       7 -87.7311       8 -87.7200       9 -87.7215      10 -87.7290
      11 -87.7166      12 -87.7204      13 -87.7275      14 -87.7173      15 -87.7147
      16 -87.7181      17 -87.7219      18 -87.7261      19 -87.7255      20 -87.7209
      21 -87.7158      22 -87.7124      23 -87.7409      24 -87.7383      25 -87.7180
      26 -87.7191      27 -87.7190      28 -87.7288      29 -87.7180      30 -87.7146
      31 -87.7318      32 -87.7269      33 -87.7227      34 -87.7200      35 -87.7152
      36 -87.7206      37 -87.7191      38 -87.7255      39 -87.7253      40 -87.7262
      41 -87.7276      42 -87.7300      43 -87.7232      44 -87.7283      45 -87.7177
      46 -87.7167      47 -87.7209      48 -87.7181      49 -87.7262      50 -87.7246
      51 -91.8051      52-123.9336      53-123.9362
 
 
 
 E-fermi :  -4.0615     XC(G=0):  -2.3310     alpha+bet : -2.1113

 Fermi energy:        -4.0615251699

 k-point     1 :       0.0000    0.0000    0.0000
  band No.  band energies     occupation 
      1     -28.8612      2.00000
      2     -27.8360      2.00000
      3     -23.2313      2.00000
      4     -22.2508      2.00000
      5     -22.2480      2.00000
      6     -22.2437      2.00000
      7     -22.2435      2.00000
      8     -22.2407      2.00000
      9     -22.2405      2.00000
     10     -20.3147      2.00000
     11     -20.3143      2.00000
     12     -20.3122      2.00000
     13     -20.3119      2.00000
     14     -20.3111      2.00000
     15     -20.3110      2.00000
     16     -19.3783      2.00000
     17     -19.3778      2.00000
     18     -19.3775      2.00000
     19     -19.3766      2.00000
     20     -19.3762      2.00000
     21     -19.3757      2.00000
     22     -17.1586      2.00000
     23     -17.1582      2.00000
     24     -17.1570      2.00000
     25     -17.1563      2.00000
     26     -17.1534      2.00000
     27     -17.1532      2.00000
     28     -15.9986      2.00000
     29     -15.9983      2.00000
     30     -15.9964      2.00000
     31     -15.9962      2.00000
     32     -15.9959      2.00000
     33     -15.9959      2.00000
     34     -14.6055      2.00000
     35     -14.6051      2.00000
     36     -14.6050      2.00000
     37     -14.6042      2.00000
     38     -14.6041      2.00000
     39     -14.6026      2.00000
     40     -12.8165      2.00000
     41     -12.1469      2.00000
     42     -12.1467      2.00000
     43     -12.1458      2.00000
     44     -12.1457      2.00000
     45     -12.1452      2.00000
     46     -12.1452      2.00000
     47     -11.9296      2.00000
     48     -11.9294      2.00000
     49     -11.9275      2.00000
     50     -11.9273      2.00000
     51     -11.9249      2.00000
     52     -11.9245      2.00000
     53     -11.5405      2.00000
     54     -11.2943      2.00000
     55     -11.2820      2.00000
     56     -10.5871      2.00000
     57     -10.4817      2.00000
     58     -10.4816      2.00000
     59     -10.4811      2.00000
     60     -10.4809      2.00000
     61     -10.4800      2.00000
     62     -10.4799      2.00000
     63      -9.4238      2.00000
     64      -9.4231      2.00000
     65      -9.4163      2.00000
     66      -9.4159      2.00000
     67      -9.4125      2.00000
     68      -9.4113      2.00000
     69      -9.1830      2.00000
     70      -9.1821      2.00000
     71      -9.1819      2.00000
     72      -9.1815      2.00000
     73      -9.1809      2.00000
     74      -9.1797      2.00000
     75      -9.1795      2.00000
     76      -9.1792      2.00000
     77      -9.1791      2.00000
     78      -9.1775      2.00000
     79      -9.1770      2.00000
     80      -9.1761      2.00000
     81      -7.6966      2.00000
     82      -7.6890      2.00000
     83      -7.4761      2.00000
     84      -7.4753      2.00000
     85      -7.4741      2.00000
     86      -7.4736      2.00000
     87      -7.4701      2.00000
     88      -7.4696      2.00000
     89      -7.1819      2.00000
     90      -7.1812      2.00000
     91      -7.1748      2.00000
     92      -7.1733      2.00000
     93      -7.1731      2.00000
     94      -7.1664      2.00000
     95      -6.2374      2.00000
     96      -6.2349      2.00000
     97      -6.2331      2.00000
     98      -6.2293      2.00000
     99      -6.2286      2.00000
    100      -6.2269      2.00000
    101      -5.9581      2.00000
    102      -5.9558      2.00000
    103      -4.1394      2.00000
    104      -4.1380      2.00000
    105      -4.1355      2.00000
    106      -4.1347      2.00000
    107      -4.1304      2.00000
    108      -4.1301      2.00000
    109      -1.1639      0.00000
    110      -1.1635      0.00000
    111      -1.1583      0.00000
    112      -1.1579      0.00000
    113      -1.1563      0.00000
    114      -1.1557      0.00000
    115       0.8143      0.00000
    116       0.8156      0.00000
    117       0.8177      0.00000
    118       0.8218      0.00000
    119       0.8229      0.00000
    120       0.8266      0.00000
    121       0.8514      0.00000
    122       1.4892      0.00000
    123       1.5744      0.00000
    124       1.5809      0.00000
    125       1.9421      0.00000
    126       2.0323      0.00000
    127       2.2564      0.00000
    128       2.3296      0.00000
    129       2.3367      0.00000
    130       2.3396      0.00000
    131       2.3785      0.00000
    132       2.6938      0.00000
    133       2.6948      0.00000
    134       2.6998      0.00000
    135       2.7011      0.00000
    136       2.7015      0.00000
    137       2.7020      0.00000
    138       2.7754      0.00000
    139       2.9308      0.00000
    140       3.0125      0.00000
    141       3.1014      0.00000
    142       3.1146      0.00000
    143       3.1156      0.00000
    144       3.1476      0.00000
    145       3.2350      0.00000
    146       3.2635      0.00000
    147       3.3239      0.00000
    148       3.3321      0.00000
    149       3.3809      0.00000
    150       3.4852      0.00000
    151       3.7686      0.00000
    152       4.4584      0.00000
    153       4.6383      0.00000
    154       4.7132      0.00000
    155       4.9937      0.00000
    156       5.0784      0.00000
    157       5.2909      0.00000
    158       5.2992      0.00000
    159       5.3002      0.00000
    160       5.3044      0.00000
    161       5.3063      0.00000
    162       5.3064      0.00000
    163       5.3093      0.00000
    164       5.3847      0.00000
    165       5.5849      0.00000
    166       5.6087      0.00000
    167       5.7000      0.00000
    168       5.8210      0.00000


--------------------------------------------------------------------------------------------------------


 soft charge-density along one line, spin component           1
         0         1         2         3         4         5         6         7         8         9
 total charge-density along one line
 
 pseudopotential strength for first ion, spin component:           1
 12.630  21.251  -0.000   0.000   0.000  -0.000   0.000   0.000
 21.251  35.755  -0.000   0.000   0.000  -0.000   0.000   0.000
 -0.000  -0.000  -3.234   0.000   0.000  -5.794   0.000   0.000
  0.000   0.000   0.000  -3.238   0.000   0.000  -5.800   0.000
  0.000   0.000   0.000   0.000  -3.234   0.000   0.000  -5.794
 -0.000  -0.000  -5.794   0.000   0.000 -10.358   0.000   0.000
  0.000   0.000   0.000  -5.800   0.000   0.000 -10.368   0.000
  0.000   0.000   0.000   0.000  -5.794   0.000   0.000 -10.358
 total augmentation occupancy for first ion, spin component:           1
  9.643  -3.598   0.000  -0.002  -0.000  -0.000   0.001   0.000
 -3.598   1.374  -0.000   0.001   0.000   0.000  -0.000  -0.000
  0.000  -0.000   8.197  -0.009   0.001  -2.896   0.004  -0.000
 -0.002   0.001  -0.009   3.783  -0.000   0.004  -1.106   0.000
 -0.000   0.000   0.001  -0.000   8.196  -0.000   0.000  -2.895
 -0.000   0.000  -2.896   0.004  -0.000   1.036  -0.001   0.000
  0.001  -0.000   0.004  -1.106   0.000  -0.001   0.329   0.000
  0.000  -0.000  -0.000   0.000  -2.895   0.000   0.000   1.035


------------------------ aborting loop because EDIFF is reached ----------------------------------------


    FORLOC:  cpu time    0.1080: real time    0.1088
    FORNL :  cpu time    2.8931: real time    2.9170
    FORCOR:  cpu time    1.5042: real time    1.5116
    OFIELD:  cpu time    0.0023: real time    0.0024

 VOLUME and BASIS-vectors are now :
 -----------------------------------------------------------------------------
  energy-cutoff  :     1000.00
  volume of cell :     2631.08
      direct lattice vectors                 reciprocal lattice vectors
    12.325000000  0.000000000  0.000000000     0.081135903  0.046843835  0.000000000
    -6.162500000 10.673763102  0.000000000     0.000000000  0.093687670  0.000000000
     0.000000000  0.000000000 20.000000000     0.000000000  0.000000000  0.050000000

  length of vectors
    12.325000000 12.325000000 20.000000000     0.093687670  0.093687670  0.050000000


 FORCES acting on ions:
    Electron-Ion                     Ewald-Force                    Non-Local-Force
 -----------------------------------------------------------------------------------------------
   0.847E+01 0.740E+01 0.225E+02   -.847E+01 -.740E+01 -.225E+02   0.403E-02 0.334E-02 0.858E-02
   0.133E+02 0.653E+01 0.286E+02   -.133E+02 -.653E+01 -.286E+02   0.115E-01 0.613E-02 -.942E-02
   0.626E+01 0.163E+02 0.344E+02   -.626E+01 -.163E+02 -.344E+02   0.807E-02 0.414E-01 0.176E-01
   0.926E+01 0.135E+02 0.511E+02   -.930E+01 -.135E+02 -.511E+02   0.427E-01 0.278E-01 0.505E-01
   0.914E+01 0.215E+01 0.226E+02   -.914E+01 -.215E+01 -.226E+02   -.698E-02 0.446E-03 -.393E-02
   0.951E+01 -.170E+01 0.230E+02   -.950E+01 0.170E+01 -.230E+02   -.171E-01 0.994E-02 -.145E-01
   0.165E+02 0.638E+01 0.450E+02   -.165E+02 -.636E+01 -.450E+02   0.417E-01 -.249E-01 0.585E-02
   0.161E+02 -.560E+01 0.472E+02   -.161E+02 0.561E+01 -.472E+02   0.136E-01 -.912E-02 -.326E-01
   -.714E+01 0.148E+02 0.349E+02   0.715E+01 -.148E+02 -.349E+02   0.131E-02 0.265E-02 -.218E-01
   -.121E+02 0.103E+02 0.492E+02   0.122E+02 -.103E+02 -.492E+02   -.478E-01 0.453E-01 -.356E-03
   0.229E+01 -.209E+01 0.185E+02   -.228E+01 0.209E+01 -.185E+02   -.366E-02 -.662E-03 -.391E-02
   0.186E+01 -.152E+01 0.172E+02   -.186E+01 0.153E+01 -.172E+02   -.583E-02 -.449E-02 0.383E-02
   0.635E+01 -.144E+02 0.528E+02   -.641E+01 0.144E+02 -.528E+02   0.676E-01 -.192E-01 -.488E-02
   0.316E+01 -.163E+02 0.351E+02   -.318E+01 0.163E+02 -.351E+02   0.183E-01 -.318E-02 -.274E-01
   -.816E+01 0.510E+01 0.220E+02   0.816E+01 -.511E+01 -.220E+02   0.103E-01 -.279E-02 -.378E-02
   -.118E+02 0.339E+01 0.253E+02   0.118E+02 -.339E+01 -.253E+02   -.642E-02 0.132E-01 -.244E-01
   -.130E+01 -.511E+00 0.165E+02   0.130E+01 0.521E+00 -.165E+02   0.847E-03 -.166E-01 0.210E-02
   0.672E+00 0.469E+01 0.176E+02   -.673E+00 -.468E+01 -.176E+02   0.183E-02 -.986E-02 0.977E-02
   -.238E+01 -.141E+02 0.276E+02   0.236E+01 0.141E+02 -.276E+02   0.118E-01 -.165E-01 0.207E-02
   -.108E+01 -.718E+01 0.194E+02   0.108E+01 0.719E+01 -.194E+02   -.101E-01 -.147E-01 -.957E-04
   0.136E+02 -.596E+01 0.306E+02   -.136E+02 0.596E+01 -.306E+02   -.984E-03 0.177E-02 -.436E-01
   0.840E+01 -.717E+01 0.246E+02   -.840E+01 0.717E+01 -.245E+02   -.725E-02 0.115E-01 -.136E-01
   -.312E+01 0.647E+01 0.622E+02   0.314E+01 -.651E+01 -.622E+02   -.234E-01 0.429E-01 0.908E-01
   -.485E+01 -.102E+02 0.597E+02   0.483E+01 0.103E+02 -.597E+02   0.297E-01 -.341E-01 0.704E-01
   0.405E+01 -.174E+01 0.186E+02   -.405E+01 0.174E+01 -.186E+02   0.212E-02 -.737E-02 -.103E-01
   0.785E+00 0.362E+01 0.187E+02   -.790E+00 -.362E+01 -.187E+02   0.427E-02 -.213E-02 0.230E-02
   -.169E+02 0.213E+01 0.380E+02   0.169E+02 -.215E+01 -.380E+02   0.922E-03 0.249E-01 -.143E-01
   -.158E+02 -.655E+01 0.349E+02   0.158E+02 0.653E+01 -.350E+02   -.303E-01 0.205E-01 0.581E-02
   0.508E+01 -.103E+02 0.257E+02   -.509E+01 0.103E+02 -.256E+02   0.123E-01 0.321E-02 -.243E-01
   0.469E+00 -.398E+01 0.198E+02   -.476E+00 0.398E+01 -.198E+02   -.104E-02 0.223E-02 -.468E-02
   -.124E+02 -.132E+02 0.423E+02   0.124E+02 0.132E+02 -.423E+02   -.340E-01 -.236E-01 0.285E-01
   -.750E+01 -.137E+02 0.293E+02   0.750E+01 0.137E+02 -.293E+02   -.736E-02 -.306E-01 0.139E-01
   0.508E+00 0.199E+01 0.171E+02   -.501E+00 -.199E+01 -.171E+02   -.769E-02 -.283E-02 0.603E-02
   0.137E+01 0.200E+01 0.184E+02   -.137E+01 -.200E+01 -.184E+02   -.129E-01 0.854E-02 -.567E-02
   -.572E+01 0.762E+00 0.201E+02   0.572E+01 -.771E+00 -.201E+02   -.176E-02 0.552E-02 0.312E-02
   -.496E+01 -.201E+01 0.196E+02   0.497E+01 0.201E+01 -.195E+02   -.109E-01 0.610E-02 -.302E-02
   -.996E+01 -.517E+01 0.229E+02   0.998E+01 0.518E+01 -.229E+02   -.138E-01 -.762E-02 0.546E-02
   -.592E+01 -.477E+01 0.192E+02   0.593E+01 0.478E+01 -.192E+02   -.973E-02 -.136E-01 0.110E-01
   -.551E+01 -.717E+01 0.206E+02   0.552E+01 0.719E+01 -.206E+02   -.152E-01 -.235E-01 0.901E-02
   -.814E+00 -.174E+01 0.176E+02   0.820E+00 0.175E+01 -.176E+02   -.551E-02 -.157E-01 0.910E-02
   0.207E+01 0.502E+01 0.184E+02   -.207E+01 -.502E+01 -.184E+02   -.377E-02 -.293E-02 0.799E-02
   0.673E+01 0.105E+02 0.238E+02   -.674E+01 -.106E+02 -.238E+02   0.862E-02 0.866E-02 0.120E-01
   0.541E+00 0.880E+01 0.203E+02   -.541E+00 -.880E+01 -.203E+02   0.886E-02 -.101E-03 -.879E-03
   -.329E-01 0.156E+02 0.298E+02   0.432E-01 -.156E+02 -.298E+02   -.806E-02 0.120E-01 0.478E-02
   -.167E+01 0.328E+01 0.197E+02   0.167E+01 -.328E+01 -.197E+02   0.116E-01 -.641E-02 -.677E-02
   -.685E+01 0.862E+01 0.243E+02   0.685E+01 -.862E+01 -.243E+02   -.816E-03 0.401E-03 -.172E-01
   -.125E+01 -.346E+01 0.183E+02   0.125E+01 0.347E+01 -.183E+02   0.179E-02 -.463E-02 0.213E-02
   -.318E+01 0.128E+01 0.175E+02   0.318E+01 -.127E+01 -.175E+02   -.899E-02 -.171E-03 -.782E-02
   0.283E+00 -.215E+01 0.173E+02   -.277E+00 0.216E+01 -.173E+02   -.716E-02 -.124E-01 0.708E-02
   0.342E+01 0.248E+01 0.175E+02   -.342E+01 -.248E+01 -.175E+02   -.106E-01 0.209E-02 0.345E-02
   0.841E-01 -.675E-01 -.343E+03   -.750E-01 0.541E-01 0.343E+03   -.202E-01 0.205E-01 -.375E-01
   -.228E+03 0.155E+03 -.527E+03   0.279E+03 -.190E+03 0.530E+03   -.527E+02 0.358E+02 -.349E+01
   0.228E+03 -.155E+03 -.507E+03   -.279E+03 0.190E+03 0.504E+03   0.527E+02 -.358E+02 0.321E+01
 -----------------------------------------------------------------------------------------------
   0.150E-02 0.225E-02 0.266E+00   0.000E+00 0.284E-13 -.114E-12   -.259E-01 0.166E-02 -.222E+00
 
 
 POSITION                                       TOTAL-FORCE (eV/Angst)
 -----------------------------------------------------------------------------------
     11.98348      0.00342      0.01417        -0.007101      0.008066     -0.004391
     -0.34154      1.42665      0.01100        -0.015349      0.018253     -0.003849
      2.12355      0.00315      0.01249         0.011628      0.007550     -0.006346
      2.12326      1.42653      0.00641         0.015907      0.015961      0.004159
     10.75099      2.13819      0.01213        -0.007071      0.018213     -0.000243
     -1.57382      3.56123      0.01110        -0.022688      0.015293     -0.001151
      0.89078      2.13854      0.00548         0.001998      0.019946      0.006995
      0.89099      3.56147      0.00181        -0.011143      0.013828      0.014420
      4.58864      0.00346      0.01135         0.028019     -0.015147     -0.002266
      4.58894      1.42623      0.00646         0.017820      0.019705      0.017797
      9.51854      4.27281      0.01369         0.017594     -0.000420      0.000639
     -2.80632      5.69591      0.01434        -0.006090     -0.017322      0.001023
      2.12300      4.27302      0.00000         0.006772      0.022030      0.023905
      2.12335      5.69594      0.00581         0.002434      0.003679      0.001936
      7.05344      0.00333      0.01399         0.006475     -0.013609      0.000453
      7.05353      1.42635      0.01368        -0.003730      0.013412     -0.004202
      8.28610      6.40752      0.01601         0.019673     -0.021708     -0.001417
     -4.03885      7.83070      0.01636         0.008104     -0.018597     -0.002069
      3.35586      6.40753      0.01007        -0.017742     -0.011178     -0.001620
      3.35599      7.83072      0.01320        -0.018155     -0.007291     -0.000551
     -0.34146      4.27290      0.00723         0.003772      0.019017     -0.002570
     -0.34138      5.69591      0.00946        -0.010637      0.001473      0.002299
      3.35624      2.13791      0.00222         0.004604      0.022717      0.033745
      3.35573      3.56155      0.00139         0.023507      0.002806      0.025081
     -1.57395      6.40758      0.01311         0.028350     -0.014943     -0.000989
     -1.57385      7.83068      0.01438         0.010843     -0.002511     -0.000025
      5.82093      2.13784      0.01033         0.018682      0.003565      0.001443
      5.82114      3.56097      0.01156         0.005727     -0.003024     -0.003353
      0.89092      6.40755      0.00907         0.003778     -0.001070     -0.002241
      0.89106      7.83068      0.01235        -0.008095      0.006711      0.002750
      4.58871      4.27293      0.00850        -0.011970      0.001802     -0.002745
      4.58852      5.69606      0.01149         0.001059     -0.018017     -0.003306
      9.51845      0.00337      0.01490        -0.017870     -0.006211     -0.000588
      9.51855      1.42644      0.01438        -0.030468      0.022808     -0.000524
      8.28593      2.13803      0.01453        -0.000161     -0.000509      0.002307
      8.28613      3.56115      0.01464        -0.012436     -0.003960     -0.001037
      7.05356      4.27269      0.01457         0.005344     -0.007870      0.001300
      7.05362      5.69588      0.01553        -0.001670     -0.030434     -0.000838
      5.82112      6.40755      0.01489        -0.014508     -0.018012     -0.001279
      5.82102      7.83073      0.01579        -0.005232     -0.019724     -0.002156
      7.05363      8.54227      0.01631        -0.002361     -0.011934     -0.001401
     -5.27149      9.96549      0.01495         0.000025     -0.001794     -0.005688
     -2.80638      8.54234      0.01558         0.029698     -0.015728     -0.002009
     -2.80627      9.96553      0.01362         0.021290      0.004868     -0.005429
     -0.34149      8.54239      0.01378         0.023891     -0.014461     -0.000254
     -0.34138      9.96550      0.01354         0.011640      0.012749     -0.000701
      2.12343      8.54232      0.01336        -0.012956     -0.013675      0.000657
      2.12354      9.96544      0.01469        -0.026308      0.015105     -0.001956
      4.58846      8.54235      0.01505        -0.020435     -0.016898     -0.000072
      4.58853      9.96550      0.01517        -0.025603      0.007656     -0.001214
      3.04930      2.68154      3.74577        -0.027709      0.016672     -0.019381
      4.02070      2.02068      3.81019        -1.641355      1.096312     -0.129043
      2.07767      3.34267      3.68631         1.650207     -1.104149      0.075998
 -----------------------------------------------------------------------------------
    total drift:                               -0.024419      0.003912      0.044561


--------------------------------------------------------------------------------------------------------



  FREE ENERGIE OF THE ION-ELECTRON SYSTEM (eV)
  ---------------------------------------------------
  free  energy   TOTEN  =      -531.12036250 eV

  energy  without entropy=     -531.12036250  energy(sigma->0) =     -531.12036250
 


--------------------------------------------------------------------------------------------------------


    POTLOK:  cpu time    1.6961: real time    1.7043


--------------------------------------------------------------------------------------------------------


 writing wavefunctions
     LOOP+:  cpu time  676.9411: real time  683.0039
    4ORBIT:  cpu time    0.0000: real time    0.0000

 total amount of memory used by VASP MPI-rank0   556209. kBytes
=======================================================================

   base      :      30000. kBytes
   nonl-proj :     184518. kBytes
   fftplans  :      31725. kBytes
   grid      :     282516. kBytes
   one-center:        162. kBytes
   wavefun   :      27288. kBytes
 
  
  
 General timing and accounting informations for this job:
 ========================================================
  
                  Total CPU time used (sec):      713.730
                            User time (sec):      691.466
                          System time (sec):       22.263
                         Elapsed time (sec):      721.281
  
                   Maximum memory used (kb):     1029004.
                   Average memory used (kb):          N/A
  
                          Minor page faults:       130343
                          Major page faults:          130
                 Voluntary context switches:         3733
