 vasp.6.2.1 16May21 (build Nov 06 2021 14:46:37) complex                        
  
 executed on             LinuxIFC date 2025.04.16  17:47:03
 running on  112 total cores
 distrk:  each k-point on  112 cores,    1 groups
 distr:  one band on NCORE=  28 cores,    4 groups


--------------------------------------------------------------------------------------------------------


 INCAR:
   ALGO = Conjugate
   NPAR = 4
   ISMEAR = 0
   SIGMA = 0.01
   PREC = Accurate
   EDIFF = 1E-7
   ENCUT = 1000
   ISIF = 0
   GGA = MK
   LUSE_VDW = .TRUE.
   PARAM1 = 0.1234
   PARAM2 = 0.711357
   ZAB_VDW = -1.8867
   AGGAC = 0.0000
   LASPH = .TRUE.

 POTCAR:    PAW_PBE C_h 06Feb2004                 
 POTCAR:    PAW_PBE O_h 06Feb2004                 
 -----------------------------------------------------------------------------
|                                                                             |
|           W    W    AA    RRRRR   N    N  II  N    N   GGGG   !!!           |
|           W    W   A  A   R    R  NN   N  II  NN   N  G    G  !!!           |
|           W    W  A    A  R    R  N N  N  II  N N  N  G       !!!           |
|           W WW W  AAAAAA  RRRRR   N  N N  II  N  N N  G  GGG   !            |
|           WW  WW  A    A  R   R   N   NN  II  N   NN  G    G                |
|           W    W  A    A  R    R  N    N  II  N    N   GGGG   !!!           |
|                                                                             |
|     For optimal performance we recommend to set                             |
|       NCORE = 2 up to number-of-cores-per-socket                            |
|     NCORE specifies how many cores store one orbital (NPAR=cpu/NCORE).      |
|     This setting can greatly improve the performance of VASP for DFT.       |
|     The default, NCORE=1 might be grossly inefficient on modern             |
|     multi-core architectures or massively parallel machines. Do your        |
|     own testing! More info at https://www.vasp.at/wiki/index.php/NCORE      |
|     Unfortunately you need to use the default for GW and RPA                |
|     calculations (for HF NCORE is supported but not extensively tested      |
|     yet).                                                                   |
|                                                                             |
 -----------------------------------------------------------------------------

 -----------------------------------------------------------------------------
|                                                                             |
|               ----> ADVICE to this user running VASP <----                  |
|                                                                             |
|     You have switched on vdW-DFT.                                           |
|     This routine was written and supplied by Jiri Klimes. We recommend      |
|     that you carefully read and cite the following publications:            |
|       J. Klimes, D.R. Bowler, A. Michelides                                 |
|          J. Phys.: Cond Matt. 22 022201 (2010)                              |
|       J. Klimes, D.R. Bowler, A. Michelides                                 |
|          Phys. Rev. B. 83, 195131 (2011)                                    |
|     and references therein.                                                 |
|                                                                             |
 -----------------------------------------------------------------------------

 POTCAR:    PAW_PBE C_h 06Feb2004                 
   VRHFIN =C: s2p2                                                                                  
   LEXCH  = PE                                                                                      
   EATOM  =   147.1560 eV,   10.8157 Ry                                                             
                                                                                                    
   TITEL  = PAW_PBE C_h 06Feb2004                                                                   
   LULTRA =        F    use ultrasoft PP ?                                                          
   IUNSCR =        1    unscreen: 0-lin 1-nonlin 2-no                                               
   RPACOR =    0.800    partial core radius                                                         
   POMASS =   12.011; ZVAL   =    4.000    mass and valenz                                          
   RCORE  =    1.100    outmost cutoff radius                                                       
   RWIGS  =    1.630; RWIGS  =    0.863    wigner-seitz radius (au A)                               
   ENMAX  =  700.000; ENMIN  =  500.000 eV                                                          
   ICORE  =        2    local potential                                                             
   LCOR   =        T    correct aug charges                                                         
   LPAW   =        T    paw PP                                                                      
   EAUG   =  946.768                                                                                
   DEXC   =    0.000                                                                                
   RMAX   =    1.128    core radius for proj-oper                                                   
   RAUG   =    1.300    factor for augmentation sphere                                              
   RDEP   =    1.162    radius for radial grids                                                     
   RDEPT  =    1.088    core radius for aug-charge                                                  
                                                                                                    
   Atomic configuration                                                                             
    4 entries                                                                                       
     n  l   j            E        occ.                                                              
     1  0  0.50      -273.3789   2.0000                                                             
     2  0  0.50       -13.7508   2.0000                                                             
     2  1  0.50        -5.2854   2.0000                                                             
     3  2  1.50        -5.4423   0.0000                                                             
   Description                                                                                      
     l       E           TYP  RCUT    TYP  RCUT                                                     
     0    -13.7508458     23  1.100                                                                 
     0     -8.2022199     23  1.100                                                                 
     1     -5.2854383     23  1.100                                                                 
     1      1.1560700     23  1.100                                                                 
     2     -5.4423304      7  1.100                                                                 
  local pseudopotential read in
  partial core-charges read in
  partial kinetic energy density read in
  atomic valenz-charges read in
  non local Contribution for L=           0  read in
    real space projection operators read in
  non local Contribution for L=           0  read in
    real space projection operators read in
  non local Contribution for L=           1  read in
    real space projection operators read in
  non local Contribution for L=           1  read in
    real space projection operators read in
    PAW grid and wavefunctions read in
 
   number of l-projection  operators is LMAX  =           4
   number of lm-projection operators is LMMAX =           8
 
 POTCAR:    PAW_PBE O_h 06Feb2004                 
   VRHFIN =O: s2p4                                                                                  
   LEXCH  = PE                                                                                      
   EATOM  =   432.3788 eV,   31.7789 Ry                                                             
                                                                                                    
   TITEL  = PAW_PBE O_h 06Feb2004                                                                   
   LULTRA =        F    use ultrasoft PP ?                                                          
   IUNSCR =        1    unscreen: 0-lin 1-nonlin 2-no                                               
   RPACOR =    0.800    partial core radius                                                         
   POMASS =   16.000; ZVAL   =    6.000    mass and valenz                                          
   RCORE  =    1.100    outmost cutoff radius                                                       
   RWIGS  =    1.400; RWIGS  =    0.741    wigner-seitz radius (au A)                               
   ENMAX  =  700.000; ENMIN  =  500.000 eV                                                          
   ICORE  =        2    local potential                                                             
   LCOR   =        T    correct aug charges                                                         
   LPAW   =        T    paw PP                                                                      
   EAUG   =  888.804                                                                                
   DEXC   =    0.000                                                                                
   RMAX   =    1.128    core radius for proj-oper                                                   
   RAUG   =    1.300    factor for augmentation sphere                                              
   RDEP   =    1.125    radius for radial grids                                                     
   RDEPT  =    1.088    core radius for aug-charge                                                  
                                                                                                    
   Atomic configuration                                                                             
    4 entries                                                                                       
     n  l   j            E        occ.                                                              
     1  0  0.50      -514.6923   2.0000                                                             
     2  0  0.50       -23.9615   2.0000                                                             
     2  1  0.50        -9.0305   4.0000                                                             
     3  2  1.50        -9.5241   0.0000                                                             
   Description                                                                                      
     l       E           TYP  RCUT    TYP  RCUT                                                     
     0    -23.9615319     23  1.100                                                                 
     0    -25.3221145     23  1.100                                                                 
     1     -9.0304911     23  1.100                                                                 
     1     -5.4802209     23  1.100                                                                 
     2     -9.5240782      7  1.100                                                                 
  local pseudopotential read in
  partial core-charges read in
  partial kinetic energy density read in
  atomic valenz-charges read in
  non local Contribution for L=           0  read in
    real space projection operators read in
  non local Contribution for L=           0  read in
    real space projection operators read in
  non local Contribution for L=           1  read in
    real space projection operators read in
  non local Contribution for L=           1  read in
    real space projection operators read in
    PAW grid and wavefunctions read in
 
   number of l-projection  operators is LMAX  =           4
   number of lm-projection operators is LMMAX =           8
 
 -----------------------------------------------------------------------------
|                                                                             |
|               ----> ADVICE to this user running VASP <----                  |
|                                                                             |
|     You have a (more or less) 'large supercell' and for larger cells it     |
|     might be more efficient to use real-space projection operators.         |
|     Therefore, try LREAL= Auto in the INCAR file.                           |
|     Mind: For very accurate calculation, you might also keep the            |
|     reciprocal projection scheme (i.e. LREAL=.FALSE.).                      |
|                                                                             |
 -----------------------------------------------------------------------------

 -----------------------------------------------------------------------------
|                                                                             |
|               ----> ADVICE to this user running VASP <----                  |
|                                                                             |
|     You enforced a specific xc type in the INCAR file but a different       |
|     type was found in the POTCAR file.                                      |
|     I HOPE YOU KNOW WHAT YOU ARE DOING!                                     |
|                                                                             |
 -----------------------------------------------------------------------------

  PAW_PBE C_h 06Feb2004                 :
 energy of atom  1       EATOM= -147.1560
 kinetic energy error for atom=    0.0031 (will be added to EATOM!!)
  PAW_PBE O_h 06Feb2004                 :
 energy of atom  2       EATOM= -432.3788
 kinetic energy error for atom=    0.0171 (will be added to EATOM!!)
 
 
 POSCAR:  C  O
  positions in cartesian coordinates
  No initial velocities read in
 exchange correlation table for  LEXCH =       43
   RHO(1)=    0.500       N(1)  =     2000
   RHO(2)=  100.500       N(2)  =     4000
 


--------------------------------------------------------------------------------------------------------


 ion  position               nearest neighbor table
   1  0.972  0.000  0.001-  50 1.42   2 1.42  42 1.42
   2  0.039  0.134  0.000-   5 1.42   7 1.42   1 1.42
   3  0.172  0.000  0.000-  42 1.42  44 1.42   4 1.42
   4  0.239  0.134  0.000-   7 1.42   3 1.42  23 1.42
   5  0.972  0.200  0.000-   6 1.42   2 1.42  34 1.42
   6  0.039  0.334  0.000-   5 1.42  21 1.42  11 1.42
   7  0.172  0.200  0.000-   8 1.42   2 1.42   4 1.42
   8  0.239  0.334  0.000-  13 1.42   7 1.42  21 1.42
   9  0.372  0.000  0.000-  10 1.42  44 1.42  46 1.42
  10  0.439  0.134  0.000-  27 1.42   9 1.42  23 1.42
  11  0.972  0.400  0.001-  12 1.42  36 1.42   6 1.42
  12  0.039  0.534  0.001-  25 1.42  11 1.42  17 1.42
  13  0.372  0.400  0.000-   8 1.42  14 1.42  24 1.42
  14  0.439  0.534  0.000-  13 1.42  29 1.42  19 1.42
  15  0.572  0.000  0.001-  46 1.42  16 1.42  48 1.42
  16  0.639  0.134  0.001-  15 1.42  35 1.42  27 1.42
  17  0.972  0.600  0.001-  38 1.42  18 1.42  12 1.42
  18  0.039  0.734  0.001-  43 1.42  41 1.42  17 1.42
  19  0.572  0.600  0.000-  14 1.42  20 1.42  32 1.42
  20  0.639  0.734  0.001-  49 1.42  19 1.42  47 1.42
  21  0.172  0.400  0.000-  22 1.42   8 1.42   6 1.42
  22  0.239  0.534  0.000-  21 1.42  29 1.42  25 1.42
  23  0.372  0.200  0.000-  10 1.42   4 1.42  24 1.42
  24  0.439  0.334  0.000-  13 1.42  31 1.42  23 1.42
  25  0.172  0.600  0.001-  26 1.42  12 1.42  22 1.42
  26  0.239  0.734  0.001-  25 1.42  45 1.42  43 1.42
  27  0.572  0.200  0.000-  10 1.42  28 1.42  16 1.42
  28  0.639  0.334  0.000-  27 1.42  37 1.42  31 1.42
  29  0.372  0.600  0.000-  22 1.42  14 1.42  30 1.42
  30  0.439  0.734  0.000-  47 1.42  29 1.42  45 1.42
  31  0.572  0.400  0.000-  32 1.42  28 1.42  24 1.42
  32  0.639  0.534  0.000-  31 1.42  39 1.42  19 1.42
  33  0.772  0.000  0.001-  34 1.42  48 1.42  50 1.42
  34  0.839  0.134  0.001-  33 1.42   5 1.42  35 1.42
  35  0.772  0.200  0.001-  36 1.42  16 1.42  34 1.42
  36  0.839  0.334  0.001-  35 1.42  11 1.42  37 1.42
  37  0.772  0.400  0.001-  28 1.42  38 1.42  36 1.42
  38  0.839  0.534  0.001-  17 1.42  37 1.42  39 1.42
  39  0.772  0.600  0.001-  40 1.42  38 1.42  32 1.42
  40  0.839  0.734  0.001-  39 1.42  49 1.42  41 1.42
  41  0.972  0.800  0.001-  18 1.42  42 1.42  40 1.42
  42  0.039  0.934  0.001-   3 1.42  41 1.42   1 1.42
  43  0.172  0.800  0.001-  18 1.42  44 1.42  26 1.42
  44  0.239  0.934  0.001-   9 1.42  43 1.42   3 1.42
  45  0.372  0.800  0.001-  26 1.42  46 1.42  30 1.42
  46  0.439  0.934  0.001-  15 1.42  45 1.42   9 1.42
  47  0.572  0.800  0.001-  30 1.42  48 1.42  20 1.42
  48  0.639  0.934  0.001-  47 1.42  33 1.42  15 1.42
  49  0.772  0.800  0.001-  50 1.42  20 1.42  40 1.42
  50  0.839  0.934  0.001-  49 1.42   1 1.42  33 1.42
  51  0.373  0.251  0.106-  52 1.18  53 1.18
  52  0.421  0.189  0.109-  51 1.18
  53  0.325  0.313  0.104-  51 1.18
 
  LATTYP: Found a hexagonal cell.
 ALAT       =    12.3250000000
 C/A-ratio  =     2.0283975659
  
  Lattice vectors:
  
 A1 = (  12.3250000000,   0.0000000000,   0.0000000000)
 A2 = (  -6.1625000000,  10.6737631016,   0.0000000000)
 A3 = (   0.0000000000,   0.0000000000,  25.0000000000)


Analysis of symmetry for initial positions (statically):
=====================================================================
 Subroutine PRICEL returns:
 Original cell was already a primitive cell.
 

 Routine SETGRP: Setting up the symmetry group for a 
 hexagonal supercell.


 Subroutine GETGRP returns: Found  1 space group operations
 (whereof  1 operations were pure point group operations)
 out of a pool of 24 trial point group operations.


The static configuration has the point symmetry C_1 .


Analysis of symmetry for dynamics (positions and initial velocities):
=====================================================================
 Subroutine PRICEL returns:
 Original cell was already a primitive cell.
 

 Routine SETGRP: Setting up the symmetry group for a 
 hexagonal supercell.


 Subroutine GETGRP returns: Found  1 space group operations
 (whereof  1 operations were pure point group operations)
 out of a pool of 24 trial point group operations.


The dynamic configuration has the point symmetry C_1 .


 Subroutine INISYM returns: Found  1 space group operations
 (whereof  1 operations are pure point group operations),
 and found     1 'primitive' translations


----------------------------------------------------------------------------------------

                                     Primitive cell                                     

  volume of cell :    3288.8533

  direct lattice vectors                    reciprocal lattice vectors
    12.325000000  0.000000000  0.000000000     0.081135903  0.046843835  0.000000000
    -6.162500000 10.673763102  0.000000000     0.000000000  0.093687670  0.000000000
     0.000000000  0.000000000 25.000000000     0.000000000  0.000000000  0.040000000

  length of vectors
    12.325000000 12.325000000 25.000000000     0.093687670  0.093687670  0.040000000

  position of ions in fractional coordinates (direct lattice)
     0.972450841  0.000320818  0.000566711
     0.039118382  0.133659505  0.000440173
     0.172443627  0.000295449  0.000499628
     0.239096278  0.133647917  0.000256468
     0.972452058  0.200322012  0.000485219
     0.039128360  0.333643771  0.000444150
     0.172451764  0.200354552  0.000219167
     0.239124359  0.333665720  0.000072260
     0.372465565  0.000324403  0.000453913
     0.439137473  0.133619939  0.000258338
     0.972449824  0.400309362  0.000547611
     0.039124981  0.533636789  0.000573410
     0.372416176  0.400329481  0.000000000
     0.439099602  0.533638981  0.000232414
     0.572443676  0.000312125  0.000559580
     0.639110207  0.133631751  0.000547275
     0.972452703  0.600305653  0.000640289
     0.039124495  0.733640359  0.000654513
     0.572433471  0.600306242  0.000402895
     0.639111888  0.733641879  0.000527905
     0.172454630  0.400318228  0.000289045
     0.239120185  0.533636548  0.000378509
     0.372459750  0.200295993  0.000088997
     0.439107096  0.333673419  0.000055762
     0.172452155  0.600311506  0.000524340
     0.239123371  0.733638574  0.000575129
     0.572431082  0.200289171  0.000413296
     0.639112773  0.333618630  0.000462376
     0.372439808  0.600308022  0.000362844
     0.439116090  0.733637858  0.000494190
     0.572469358  0.400320504  0.000339918
     0.639119408  0.533650873  0.000459610
     0.772445723  0.000315427  0.000596161
     0.839116277  0.133640203  0.000575306
     0.772440513  0.200307432  0.000581033
     0.839120241  0.333635728  0.000585467
     0.772446320  0.400298367  0.000582978
     0.839118980  0.533633964  0.000621100
     0.772456143  0.600308173  0.000595712
     0.839115033  0.733643180  0.000631512
     0.972455313  0.800305582  0.000652233
     0.039114714  0.933643289  0.000598051
     0.172457971  0.800312211  0.000623372
     0.239134551  0.933647193  0.000544850
     0.372451396  0.800316674  0.000551399
     0.439124489  0.933644769  0.000541430
     0.572441101  0.800310054  0.000534535
     0.639115067  0.933638985  0.000587644
     0.772445098  0.800313187  0.000602062
     0.839116614  0.933644338  0.000606830
     0.373021009  0.251226878  0.105946310
     0.420879805  0.189313152  0.108523184
     0.325156981  0.313167186  0.103568115

  ion indices of the primitive-cell ions
   primitive index   ion index
                 1           1
                 2           2
                 3           3
                 4           4
                 5           5
                 6           6
                 7           7
                 8           8
                 9           9
                10          10
                11          11
                12          12
                13          13
                14          14
                15          15
                16          16
                17          17
                18          18
                19          19
                20          20
                21          21
                22          22
                23          23
                24          24
                25          25
                26          26
                27          27
                28          28
                29          29
                30          30
                31          31
                32          32
                33          33
                34          34
                35          35
                36          36
                37          37
                38          38
                39          39
                40          40
                41          41
                42          42
                43          43
                44          44
                45          45
                46          46
                47          47
                48          48
                49          49
                50          50
                51          51
                52          52
                53          53

----------------------------------------------------------------------------------------

 
 
 KPOINTS: auto                                    

Automatic generation of k-mesh.
 Grid dimensions read from file:
 generate k-points for:    1    1    1

 Generating k-lattice:

  Cartesian coordinates                     Fractional coordinates (reciprocal lattice)
     0.081135903  0.046843835  0.000000000     1.000000000 -0.000000000  0.000000000
     0.000000000  0.093687670  0.000000000     0.000000000  1.000000000  0.000000000
     0.000000000  0.000000000  0.040000000     0.000000000  0.000000000  1.000000000

  Length of vectors
     0.093687670  0.093687670  0.040000000

  Shift w.r.t. Gamma in fractional coordinates (k-lattice)
     0.000000000  0.000000000  0.000000000

 
 Subroutine IBZKPT returns following result:
 ===========================================
 
 Found      1 irreducible k-points:
 
 Following reciprocal coordinates:
            Coordinates               Weight
  0.000000  0.000000  0.000000      1.000000
 
 Following cartesian coordinates:
            Coordinates               Weight
  0.000000  0.000000  0.000000      1.000000
 


--------------------------------------------------------------------------------------------------------




 Dimension of arrays:
   k-points           NKPTS =      1   k-points in BZ     NKDIM =      1   number of bands    NBANDS=    136
   number of dos      NEDOS =    301   number of ions     NIONS =     53
   non local maximal  LDIM  =      4   non local SUM 2l+1 LMDIM =      8
   total plane-waves  NPLWV = ******
   max r-space proj   IRMAX =      1   max aug-charges    IRDMAX=  10008
   dimension x,y,z NGX =   128 NGY =  128 NGZ =  270
   dimension x,y,z NGXF=   256 NGYF=  256 NGZF=  540
   support grid    NGXF=   256 NGYF=  256 NGZF=  540
   ions per type =              51   2
   NGX,Y,Z   is equivalent  to a cutoff of  17.27, 17.27, 17.95 a.u.
   NGXF,Y,Z  is equivalent  to a cutoff of  34.53, 34.53, 35.91 a.u.

 SYSTEM =  unknown system                          
 POSCAR =   C  O                                   

 Startparameter for this run:
   NWRITE =      2    write-flag & timer
   PREC   = accura    normal or accurate (medium, high low for compatibility)
   ISTART =      0    job   : 0-new  1-cont  2-samecut
   ICHARG =      2    charge: 1-file 2-atom 10-const
   ISPIN  =      1    spin polarized calculation?
   LNONCOLLINEAR =      F non collinear calculations
   LSORBIT =      F    spin-orbit coupling
   INIWAV =      1    electr: 0-lowe 1-rand  2-diag
   LASPH  =      T    aspherical Exc in radial PAW
 Electronic Relaxation 1
   ENCUT  = 1000.0 eV  73.50 Ry    8.57 a.u.  31.78 31.78 64.46*2*pi/ulx,y,z
   ENINI  = 1000.0     initial cutoff
   ENAUG  =  946.8 eV  augmentation charge cutoff
   NELM   =     60;   NELMIN=  2; NELMDL= -5     # of ELM steps 
   EDIFF  = 0.1E-06   stopping-criterion for ELM
   LREAL  =      F    real-space projection
   NLSPLINE    = F    spline interpolate recip. space projectors
   LCOMPAT=      F    compatible to vasp.4.4
   GGA_COMPAT  = T    GGA compatible to vasp.4.4-vasp.4.6
   LMAXPAW     = -100 max onsite density
   LMAXMIX     =    2 max onsite mixed and CHGCAR
   VOSKOWN=      0    Vosko Wilk Nusair interpolation
   ROPT   =    0.00000   0.00000
 Ionic relaxation
   EDIFFG = 0.1E-05   stopping-criterion for IOM
   NSW    =      0    number of steps for IOM
   NBLOCK =      1;   KBLOCK =      1    inner block; outer block 
   IBRION =     -1    ionic relax: 0-MD 1-quasi-New 2-CG
   NFREE  =      0    steps in history (QN), initial steepest desc. (CG)
   ISIF   =      0    stress and relaxation
   IWAVPR =     10    prediction:  0-non 1-charg 2-wave 3-comb
   ISYM   =      2    0-nonsym 1-usesym 2-fastsym
   LCORR  =      T    Harris-Foulkes like correction to forces

   POTIM  = 0.5000    time-step for ionic-motion
   TEIN   =    0.0    initial temperature
   TEBEG  =    0.0;   TEEND  =   0.0 temperature during run
   SMASS  =  -3.00    Nose mass-parameter (am)
   estimated Nose-frequenzy (Omega)   =  0.10E-29 period in steps = 0.13E+47 mass=  -0.347E-26a.u.
   SCALEE = 1.0000    scale energy and forces
   NPACO  =    256;   APACO  = 16.0  distance and # of slots for P.C.
   PSTRESS=    0.0 pullay stress

  Mass of Ions in am
   POMASS =  12.01 16.00
  Ionic Valenz
   ZVAL   =   4.00  6.00
  Atomic Wigner-Seitz radii
   RWIGS  =  -1.00 -1.00
  virtual crystal weights 
   VCA    =   1.00  1.00
   NELECT =     216.0000    total number of electrons
   NUPDOWN=      -1.0000    fix difference up-down

 DOS related values:
   EMIN   =  10.00;   EMAX   =-10.00  energy-range for DOS
   EFERMI =   0.00
   ISMEAR =     0;   SIGMA  =   0.01  broadening in eV -4-tet -1-fermi 0-gaus

 Electronic relaxation 2 (details)
   IALGO  =     58    algorithm
   LDIAG  =      T    sub-space diagonalisation (order eigenvalues)
   LSUBROT=      F    optimize rotation matrix (better conditioning)
   TURBO    =      0    0=normal 1=particle mesh
   IRESTART =      0    0=no restart 2=restart with 2 vectors
   NREBOOT  =      0    no. of reboots
   NMIN     =      0    reboot dimension
   EREF     =   0.00    reference energy to select bands
   IMIX   =      4    mixing-type and parameters
     AMIX     =   0.40;   BMIX     =  1.00
     AMIX_MAG =   1.60;   BMIX_MAG =  1.00
     AMIN     =   0.10
     WC   =   100.;   INIMIX=   1;  MIXPRE=   1;  MAXMIX= -45

 Intra band minimization:
   WEIMIN = 0.0000     energy-eigenvalue tresh-hold
   EBREAK =  0.18E-09  absolut break condition
   DEPER  =   0.30     relativ break condition  

   TIME   =   0.40     timestep for ELM

  volume/ion in A,a.u.               =      62.05       418.76
  Fermi-wavevector in a.u.,A,eV,Ry     =   0.660508  1.248179  5.935820  0.436270
  Thomas-Fermi vector in A             =   1.732977
 
 Write flags
   LWAVE        =      T    write WAVECAR
   LDOWNSAMPLE  =      F    k-point downsampling of WAVECAR
   LCHARG       =      T    write CHGCAR
   LVTOT        =      F    write LOCPOT, total local potential
   LVHAR        =      F    write LOCPOT, Hartree potential only
   LELF         =      F    write electronic localiz. function (ELF)
   LORBIT       =      0    0 simple, 1 ext, 2 COOP (PROOUT), +10 PAW based schemes


 Dipole corrections
   LMONO  =      F    monopole corrections only (constant potential shift)
   LDIPOL =      F    correct potential (dipole corrections)
   IDIPOL =      0    1-x, 2-y, 3-z, 4-all directions 
   EPSILON=  1.0000000 bulk dielectric constant

 Exchange correlation treatment:
   GGA     =    MK    GGA type
   LEXCH   =    43    internal setting for exchange type
   VOSKOWN=      0    Vosko Wilk Nusair interpolation
   LHFCALC =     F    Hartree Fock is set to
   LHFONE  =     F    Hartree Fock one center treatment
   AEXX    =    0.0000 exact exchange contribution

 vdW DFT:
   LUSE_VDW   =     T    switch on vdW DFT
   Zab_VDW    =******    correlation parameter
   PARAM1     =0.1234
   PARAM2     =0.7114
   PARAM3     =0.0000
   -- rVV10 --
   BPARAM     = 6.3000
   CPARAM     = 0.0093

 Linear response parameters
   LEPSILON=     F    determine dielectric tensor
   LRPA    =     F    only Hartree local field effects (RPA)
   LNABLA  =     F    use nabla operator in PAW spheres
   LVEL    =     F    velocity operator in full k-point grid
   LINTERFAST=   F  fast interpolation
   KINTER  =     0    interpolate to denser k-point grid
   CSHIFT  =0.1000    complex shift for real part using Kramers Kronig
   OMEGAMAX=  -1.0    maximum frequency
   DEG_THRESHOLD= 0.2000000E-02 threshold for treating states as degnerate
   RTIME   =   -0.100 relaxation time in fs
  (WPLASMAI=    0.000 imaginary part of plasma frequency in eV, 0.658/RTIME)
   DFIELD  = 0.0000000 0.0000000 0.0000000 field for delta impulse in time
 
 Orbital magnetization related:
   ORBITALMAG=     F  switch on orbital magnetization
   LCHIMAG   =     F  perturbation theory with respect to B field
   DQ        =  0.001000  dq finite difference perturbation B field
   LLRAUG    =     F  two centre corrections for induced B field



--------------------------------------------------------------------------------------------------------


 Static calculation
 charge density and potential will be updated during run
 non-spin polarized calculation
 Conjugate gradient for all bands (Freysoldt, et al. PRB 79, 241103 (2009))
 preconditioned conjugated gradient                                        
 perform sub-space diagonalisation
    before iterative eigenvector-optimisation
 modified Broyden-mixing scheme, WC =      100.0
 initial mixing is a Kerker type mixing with AMIX =  0.4000 and BMIX =      1.0000
 Hartree-type preconditioning will be used
 using additional bands           28
 reciprocal scheme for non local part
 use partial core corrections
 no Harris-corrections to forces 
 use gradient corrections 
 use of overlap-Matrix (Vanderbilt PP)
 Gauss-broadening in eV      SIGMA  =   0.01


--------------------------------------------------------------------------------------------------------


  energy-cutoff  :     1000.00
  volume of cell :     3288.85
      direct lattice vectors                 reciprocal lattice vectors
    12.325000000  0.000000000  0.000000000     0.081135903  0.046843835  0.000000000
    -6.162500000 10.673763102  0.000000000     0.000000000  0.093687670  0.000000000
     0.000000000  0.000000000 25.000000000     0.000000000  0.000000000  0.040000000

  length of vectors
    12.325000000 12.325000000 25.000000000     0.093687670  0.093687670  0.040000000


 
 k-points in units of 2pi/SCALE and weight: auto                                    
   0.00000000  0.00000000  0.00000000       1.000
 
 k-points in reciprocal lattice and weights: auto                                    
   0.00000000  0.00000000  0.00000000       1.000
 
 position of ions in fractional coordinates (direct lattice) 
   0.97245084  0.00032082  0.00056671
   0.03911838  0.13365950  0.00044017
   0.17244363  0.00029545  0.00049963
   0.23909628  0.13364792  0.00025647
   0.97245206  0.20032201  0.00048522
   0.03912836  0.33364377  0.00044415
   0.17245176  0.20035455  0.00021917
   0.23912436  0.33366572  0.00007226
   0.37246557  0.00032440  0.00045391
   0.43913747  0.13361994  0.00025834
   0.97244982  0.40030936  0.00054761
   0.03912498  0.53363679  0.00057341
   0.37241618  0.40032948  0.00000000
   0.43909960  0.53363898  0.00023241
   0.57244368  0.00031213  0.00055958
   0.63911021  0.13363175  0.00054727
   0.97245270  0.60030565  0.00064029
   0.03912449  0.73364036  0.00065451
   0.57243347  0.60030624  0.00040289
   0.63911189  0.73364188  0.00052791
   0.17245463  0.40031823  0.00028904
   0.23912018  0.53363655  0.00037851
   0.37245975  0.20029599  0.00008900
   0.43910710  0.33367342  0.00005576
   0.17245216  0.60031151  0.00052434
   0.23912337  0.73363857  0.00057513
   0.57243108  0.20028917  0.00041330
   0.63911277  0.33361863  0.00046238
   0.37243981  0.60030802  0.00036284
   0.43911609  0.73363786  0.00049419
   0.57246936  0.40032050  0.00033992
   0.63911941  0.53365087  0.00045961
   0.77244572  0.00031543  0.00059616
   0.83911628  0.13364020  0.00057531
   0.77244051  0.20030743  0.00058103
   0.83912024  0.33363573  0.00058547
   0.77244632  0.40029837  0.00058298
   0.83911898  0.53363396  0.00062110
   0.77245614  0.60030817  0.00059571
   0.83911503  0.73364318  0.00063151
   0.97245531  0.80030558  0.00065223
   0.03911471  0.93364329  0.00059805
   0.17245797  0.80031221  0.00062337
   0.23913455  0.93364719  0.00054485
   0.37245140  0.80031667  0.00055140
   0.43912449  0.93364477  0.00054143
   0.57244110  0.80031005  0.00053453
   0.63911507  0.93363899  0.00058764
   0.77244510  0.80031319  0.00060206
   0.83911661  0.93364434  0.00060683
   0.37302101  0.25122688  0.10594631
   0.42087980  0.18931315  0.10852318
   0.32515698  0.31316719  0.10356811
 
 position of ions in cartesian coordinates  (Angst):
  11.98347958  0.00342433  0.01416777
  -0.34154264  1.42664989  0.01100432
   2.12354700  0.00315355  0.01249070
   2.12325634  1.42652621  0.00641170
  10.75098721  2.13818970  0.01213047
  -1.57382270  3.56123457  0.01110375
   0.89078307  2.13853702  0.00547917
   0.89099273  3.56146885  0.00180651
   4.58863896  0.00346260  0.01134782
   4.58893648  1.42622757  0.00645846
   9.51853763  4.27280730  0.01369027
  -2.80632132  5.69591267  0.01433526
   2.12299894  4.27302204  0.00000000
   2.12335237  5.69593607  0.00581036
   7.05344483  0.00333155  0.01398950
   7.05352764  1.42635365  0.01368187
   8.28609598  6.40752033  0.01600723
  -4.03884931  7.83070339  0.01636283
   3.35585531  6.40752662  0.01007237
   3.35598594  7.83071962  0.01319763
  -0.34145776  4.27290193  0.00722612
  -0.34137895  5.69591010  0.00946273
   3.35624236  2.13791198  0.00222492
   3.35573251  3.56155103  0.00139405
  -1.57394684  6.40758280  0.01310850
  -1.57385216  7.83068434  0.01437823
   5.82093107  2.13783916  0.01033241
   5.82114012  3.56096622  0.01155939
   0.89092245  6.40754561  0.00907111
   0.89106251  7.83067670  0.01235474
   4.58870974  4.27292622  0.00849795
   4.58852320  5.69606300  0.01149026
   9.51844972  0.00336679  0.01490402
   9.51855036  1.42644387  0.01438264
   8.28593477  2.13803408  0.01452582
   8.28612680  3.56114872  0.01463668
   7.05356221  4.27268994  0.01457444
   7.05362213  5.69588251  0.01552751
   5.82112285  6.40754723  0.01489279
   5.82101669  7.83073350  0.01578780
   7.05362858  8.54227219  0.01630582
  -5.27148792  9.96548729  0.01495127
  -2.80637951  8.54234295  0.01558431
  -2.80626749  9.96552896  0.01362126
  -0.34148805  8.54239058  0.01378498
  -0.34137657  9.96550309  0.01353576
   2.12342586  8.54231992  0.01336337
   2.12354296  9.96544135  0.01469111
   4.58845581  8.54235337  0.01505154
   4.58852904  9.96549848  0.01517076
   3.04929830  2.68153618  2.64865774
   4.02070129  2.02068374  2.71307960
   2.07766701  3.34267235  2.58920287
 


--------------------------------------------------------------------------------------------------------


 k-point   1 :   0.0000 0.0000 0.0000  plane waves:  236157

 maximum and minimum number of plane-waves per node :      8440     8428

 maximum number of plane-waves:    236157
 maximum index in each direction: 
   IXMAX=   31   IYMAX=   31   IZMAX=   64
   IXMIN=  -31   IYMIN=  -31   IZMIN=  -64


 parallel 3D FFT for wavefunctions:
    minimum data exchange during FFTs selected (reduces bandwidth)
 parallel 3D FFT for charge:
    minimum data exchange during FFTs selected (reduces bandwidth)


 total amount of memory used by VASP MPI-rank0   100580. kBytes
=======================================================================

   base      :      30000. kBytes
   nonl-proj :       8229. kBytes
   fftplans  :      18352. kBytes
   grid      :      30208. kBytes
   one-center:          6. kBytes
   wavefun   :      13785. kBytes
 
     INWAV:  cpu time    0.0000: real time    0.0000
 Broyden mixing: mesh for mixing (old mesh)
   NGX = 63   NGY = 63   NGZ =129
  (NGX  =256   NGY  =256   NGZ  =540)
  gives a total of 512001 points

 initial charge density was supplied:
 charge density of overlapping atoms calculated
 number of electron     216.0000000 magnetization 
 keeping initial charge density in first step


--------------------------------------------------------------------------------------------------------


 Maximum index for augmentation-charges          471 (set IRDMAX)


--------------------------------------------------------------------------------------------------------


 First call to EWALD:  gamma=   0.119
 Maximum number of real-space cells 4x 4x 2
 Maximum number of reciprocal cells 2x 2x 4

    FEWALD:  cpu time    0.0025: real time    0.0025


--------------------------------------- Iteration      1(   1)  ---------------------------------------


vdW kernel read from vdw_kernel.bindat
  0.0000  0.2424  0.5071  0.7962  1.1119  1.4567  1.8333  2.2446  2.6937  3.1842
  3.7199  4.3049  4.9438  5.6415  6.4036  7.2358  8.1446  9.1372 10.2212 11.4050
 12.6979 14.1099 15.6519 17.3360 19.1751 21.1837 23.3773 25.7729 28.3892 31.2465
 34.3669 37.7748 41.4965 45.5611 50.0000
 
    POTLOK:  cpu time    4.8079: real time    4.8605
    SETDIJ:  cpu time    0.0549: real time    0.0551
    TRIAL :  cpu time    2.0837: real time    2.1046
    CORREC:  cpu time    0.0002: real time    0.0004
    --------------------------------------------
      LOOP:  cpu time    6.9549: real time    7.0311

 eigenvalue-minimisations  :   288
 total energy-change (2. order) : 0.2774114E+04  (-0.1020285E+05)
 number of electron     216.0000000 magnetization 
 augmentation part      216.0000000 magnetization 

 Free energy of the ion-electron system (eV)
  ---------------------------------------------------
  alpha Z        PSCENC =        47.94900195
  Ewald energy   TEWEN  =     48385.02047969
  -Hartree energ DENC   =    -54452.06656991
  -exchange      EXHF   =         0.00000000
  -V(xc)+E(xc)   XCENC  =       412.96448634
  PAW double counting   =      6548.36373666    -6261.59511771
  entropy T*S    EENTRO =        -0.00000000
  eigenvalues    EBANDS =      -327.46815522
  atomic energy  EATOM  =      8420.94593319
  ---------------------------------------------------
  free energy    TOTEN  =      2774.11379499 eV

  energy without entropy =     2774.11379499  energy(sigma->0) =     2774.11379499


--------------------------------------------------------------------------------------------------------




--------------------------------------- Iteration      1(   2)  ---------------------------------------


    TRIAL :  cpu time    2.8696: real time    2.8963
    CORREC:  cpu time    0.0002: real time    0.0003
    --------------------------------------------
      LOOP:  cpu time    2.9044: real time    2.9360

 eigenvalue-minimisations  :   448
 total energy-change (2. order) :-0.2335663E+04  (-0.2186443E+04)
 number of electron     216.0000000 magnetization 
 augmentation part      216.0000000 magnetization 

 Free energy of the ion-electron system (eV)
  ---------------------------------------------------
  alpha Z        PSCENC =        47.94900195
  Ewald energy   TEWEN  =     48385.02047969
  -Hartree energ DENC   =    -54452.06656991
  -exchange      EXHF   =         0.00000000
  -V(xc)+E(xc)   XCENC  =       412.96448634
  PAW double counting   =      6548.36373666    -6261.59511771
  entropy T*S    EENTRO =        -0.00000007
  eigenvalues    EBANDS =     -2663.13112890
  atomic energy  EATOM  =      8420.94593319
  ---------------------------------------------------
  free energy    TOTEN  =       438.45082125 eV

  energy without entropy =      438.45082132  energy(sigma->0) =      438.45082129


--------------------------------------------------------------------------------------------------------




--------------------------------------- Iteration      1(   3)  ---------------------------------------


    TRIAL :  cpu time    2.3750: real time    2.3953
    CORREC:  cpu time    0.0001: real time    0.0001
    --------------------------------------------
      LOOP:  cpu time    2.4175: real time    2.4435

 eigenvalue-minimisations  :   352
 total energy-change (2. order) :-0.8195408E+03  (-0.8040048E+03)
 number of electron     216.0000000 magnetization 
 augmentation part      216.0000000 magnetization 

 Free energy of the ion-electron system (eV)
  ---------------------------------------------------
  alpha Z        PSCENC =        47.94900195
  Ewald energy   TEWEN  =     48385.02047969
  -Hartree energ DENC   =    -54452.06656991
  -exchange      EXHF   =         0.00000000
  -V(xc)+E(xc)   XCENC  =       412.96448634
  PAW double counting   =      6548.36373666    -6261.59511771
  entropy T*S    EENTRO =        -0.00000000
  eigenvalues    EBANDS =     -3482.67189750
  atomic energy  EATOM  =      8420.94593319
  ---------------------------------------------------
  free energy    TOTEN  =      -381.08994729 eV

  energy without entropy =     -381.08994729  energy(sigma->0) =     -381.08994729


--------------------------------------------------------------------------------------------------------




--------------------------------------- Iteration      1(   4)  ---------------------------------------


    TRIAL :  cpu time    2.3317: real time    2.3521
    CORREC:  cpu time    0.0001: real time    0.0001
    --------------------------------------------
      LOOP:  cpu time    2.3690: real time    2.4285

 eigenvalue-minimisations  :   344
 total energy-change (2. order) :-0.7671748E+02  (-0.7568662E+02)
 number of electron     216.0000000 magnetization 
 augmentation part      216.0000000 magnetization 

 Free energy of the ion-electron system (eV)
  ---------------------------------------------------
  alpha Z        PSCENC =        47.94900195
  Ewald energy   TEWEN  =     48385.02047969
  -Hartree energ DENC   =    -54452.06656991
  -exchange      EXHF   =         0.00000000
  -V(xc)+E(xc)   XCENC  =       412.96448634
  PAW double counting   =      6548.36373666    -6261.59511771
  entropy T*S    EENTRO =        -0.00000000
  eigenvalues    EBANDS =     -3559.38937316
  atomic energy  EATOM  =      8420.94593319
  ---------------------------------------------------
  free energy    TOTEN  =      -457.80742295 eV

  energy without entropy =     -457.80742295  energy(sigma->0) =     -457.80742295


--------------------------------------------------------------------------------------------------------




--------------------------------------- Iteration      1(   5)  ---------------------------------------


    TRIAL :  cpu time    2.5319: real time    2.5568
    CORREC:  cpu time    0.0001: real time    0.0001
    CHARGE:  cpu time    0.1782: real time    0.1804
    --------------------------------------------
      LOOP:  cpu time    2.7719: real time    2.8011

 eigenvalue-minimisations  :   384
 total energy-change (2. order) :-0.2194960E+01  (-0.2183777E+01)
 number of electron     216.0000000 magnetization 
 augmentation part       -0.2317854 magnetization 

 Free energy of the ion-electron system (eV)
  ---------------------------------------------------
  alpha Z        PSCENC =        47.94900195
  Ewald energy   TEWEN  =     48385.02047969
  -Hartree energ DENC   =    -54452.06656991
  -exchange      EXHF   =         0.00000000
  -V(xc)+E(xc)   XCENC  =       412.96448634
  PAW double counting   =      6548.36373666    -6261.59511771
  entropy T*S    EENTRO =        -0.00000000
  eigenvalues    EBANDS =     -3561.58433291
  atomic energy  EATOM  =      8420.94593319
  ---------------------------------------------------
  free energy    TOTEN  =      -460.00238270 eV

  energy without entropy =     -460.00238270  energy(sigma->0) =     -460.00238270


--------------------------------------------------------------------------------------------------------




--------------------------------------- Iteration      1(   6)  ---------------------------------------


    POTLOK:  cpu time    4.5020: real time    4.5333
    SETDIJ:  cpu time    0.0533: real time    0.0535
    TRIAL :  cpu time    1.1601: real time    1.1721
    CORREC:  cpu time    4.9960: real time    5.0404
    CHARGE:  cpu time    0.1779: real time    0.1798
    --------------------------------------------
      LOOP:  cpu time   10.9201: real time   11.0103

 eigenvalue-minimisations  :     0
 total energy-change (2. order) : 0.5185860E+02  (-0.1618650E+02)
 number of electron     216.0000000 magnetization 
 augmentation part       -0.3273234 magnetization 

 Free energy of the ion-electron system (eV)
  ---------------------------------------------------
  alpha Z        PSCENC =        47.94900195
  Ewald energy   TEWEN  =     48385.02047969
  -Hartree energ DENC   =    -55897.24908832
  -exchange      EXHF   =         0.00000000
  -V(xc)+E(xc)   XCENC  =       460.08765191
  PAW double counting   =     80642.76410867   -80362.37268459
  entropy T*S    EENTRO =        -0.00000000
  eigenvalues    EBANDS =     -2105.28918781
  atomic energy  EATOM  =      8420.94593319
  ---------------------------------------------------
  free energy    TOTEN  =      -408.14378531 eV

  energy without entropy =     -408.14378531  energy(sigma->0) =     -408.14378531


--------------------------------------------------------------------------------------------------------




--------------------------------------- Iteration      1(   7)  ---------------------------------------


    POTLOK:  cpu time    4.5524: real time    4.5822
    SETDIJ:  cpu time    0.0533: real time    0.0535
    TRIAL :  cpu time    1.1595: real time    1.1804
    CORREC:  cpu time    5.0141: real time    5.0490
    CHARGE:  cpu time    0.1782: real time    0.1799
    --------------------------------------------
      LOOP:  cpu time   11.0048: real time   11.0929

 eigenvalue-minimisations  :     0
 total energy-change (2. order) :-0.1622058E+02  (-0.1760392E+01)
 number of electron     216.0000000 magnetization 
 augmentation part       -0.3751396 magnetization 

 Free energy of the ion-electron system (eV)
  ---------------------------------------------------
  alpha Z        PSCENC =        47.94900195
  Ewald energy   TEWEN  =     48385.02047969
  -Hartree energ DENC   =    -55366.35403472
  -exchange      EXHF   =         0.00000000
  -V(xc)+E(xc)   XCENC  =       443.03500880
  PAW double counting   =     95992.60956493   -95709.50225339
  entropy T*S    EENTRO =        -0.00000000
  eigenvalues    EBANDS =     -2638.06807031
  atomic energy  EATOM  =      8420.94593319
  ---------------------------------------------------
  free energy    TOTEN  =      -424.36436986 eV

  energy without entropy =     -424.36436986  energy(sigma->0) =     -424.36436986


--------------------------------------------------------------------------------------------------------




--------------------------------------- Iteration      1(   8)  ---------------------------------------


    POTLOK:  cpu time    4.4452: real time    4.4773
    SETDIJ:  cpu time    0.0533: real time    0.0535
    TRIAL :  cpu time    1.1545: real time    1.1651
    CORREC:  cpu time    4.9667: real time    5.0061
    CHARGE:  cpu time    0.1783: real time    0.1801
    --------------------------------------------
      LOOP:  cpu time   10.9112: real time   10.9982

 eigenvalue-minimisations  :     0
 total energy-change (2. order) :-0.1760930E+01  (-0.4904936E+00)
 number of electron     216.0000000 magnetization 
 augmentation part       -0.3923461 magnetization 

 Free energy of the ion-electron system (eV)
  ---------------------------------------------------
  alpha Z        PSCENC =        47.94900195
  Ewald energy   TEWEN  =     48385.02047969
  -Hartree energ DENC   =    -55352.06470110
  -exchange      EXHF   =         0.00000000
  -V(xc)+E(xc)   XCENC  =       442.65610106
  PAW double counting   =    100092.31152292   -99808.87740883
  entropy T*S    EENTRO =        -0.00000000
  eigenvalues    EBANDS =     -2654.06622866
  atomic energy  EATOM  =      8420.94593319
  ---------------------------------------------------
  free energy    TOTEN  =      -426.12529976 eV

  energy without entropy =     -426.12529976  energy(sigma->0) =     -426.12529976


--------------------------------------------------------------------------------------------------------




--------------------------------------- Iteration      1(   9)  ---------------------------------------


    POTLOK:  cpu time    4.5060: real time    4.5374
    SETDIJ:  cpu time    0.0534: real time    0.0535
    TRIAL :  cpu time    1.1760: real time    1.1873
    CORREC:  cpu time    5.0124: real time    5.0493
    CHARGE:  cpu time    0.1780: real time    0.1797
    --------------------------------------------
      LOOP:  cpu time   10.9765: real time   11.0598

 eigenvalue-minimisations  :     0
 total energy-change (2. order) :-0.4902414E+00  (-0.1931468E+00)
 number of electron     216.0000000 magnetization 
 augmentation part       -0.4005040 magnetization 

 Free energy of the ion-electron system (eV)
  ---------------------------------------------------
  alpha Z        PSCENC =        47.94900195
  Ewald energy   TEWEN  =     48385.02047969
  -Hartree energ DENC   =    -55363.57525327
  -exchange      EXHF   =         0.00000000
  -V(xc)+E(xc)   XCENC  =       442.78483187
  PAW double counting   =    102729.65101550  -102446.07519623
  entropy T*S    EENTRO =        -0.00000000
  eigenvalues    EBANDS =     -2643.31635383
  atomic energy  EATOM  =      8420.94593319
  ---------------------------------------------------
  free energy    TOTEN  =      -426.61554113 eV

  energy without entropy =     -426.61554113  energy(sigma->0) =     -426.61554113


--------------------------------------------------------------------------------------------------------




--------------------------------------- Iteration      1(  10)  ---------------------------------------


    POTLOK:  cpu time    4.5161: real time    4.5544
    SETDIJ:  cpu time    0.0533: real time    0.0535
    TRIAL :  cpu time    1.1562: real time    1.1672
    CORREC:  cpu time    5.0273: real time    5.0649
    CHARGE:  cpu time    0.1777: real time    0.1794
    --------------------------------------------
      LOOP:  cpu time   11.0029: real time   11.0986

 eigenvalue-minimisations  :     0
 total energy-change (2. order) :-0.1925306E+00  (-0.9277395E-01)
 number of electron     216.0000000 magnetization 
 augmentation part       -0.4013908 magnetization 

 Free energy of the ion-electron system (eV)
  ---------------------------------------------------
  alpha Z        PSCENC =        47.94900195
  Ewald energy   TEWEN  =     48385.02047969
  -Hartree energ DENC   =    -55358.22106053
  -exchange      EXHF   =         0.00000000
  -V(xc)+E(xc)   XCENC  =       442.62953788
  PAW double counting   =    103251.46446379  -102967.80556278
  entropy T*S    EENTRO =        -0.00000000
  eigenvalues    EBANDS =     -2648.79086493
  atomic energy  EATOM  =      8420.94593319
  ---------------------------------------------------
  free energy    TOTEN  =      -426.80807174 eV

  energy without entropy =     -426.80807174  energy(sigma->0) =     -426.80807174


--------------------------------------------------------------------------------------------------------




--------------------------------------- Iteration      1(  11)  ---------------------------------------


    POTLOK:  cpu time    4.4849: real time    4.5168
    SETDIJ:  cpu time    0.0534: real time    0.0536
    TRIAL :  cpu time    1.1551: real time    1.1659
    CORREC:  cpu time    4.9788: real time    5.0157
    CHARGE:  cpu time    0.1781: real time    0.1798
    --------------------------------------------
      LOOP:  cpu time   10.9008: real time   10.9942

 eigenvalue-minimisations  :     0
 total energy-change (2. order) :-0.9217672E-01  (-0.3658115E-01)
 number of electron     216.0000000 magnetization 
 augmentation part       -0.4007618 magnetization 

 Free energy of the ion-electron system (eV)
  ---------------------------------------------------
  alpha Z        PSCENC =        47.94900195
  Ewald energy   TEWEN  =     48385.02047969
  -Hartree energ DENC   =    -55350.16228438
  -exchange      EXHF   =         0.00000000
  -V(xc)+E(xc)   XCENC  =       442.50642342
  PAW double counting   =    102767.80698970  -102484.15489858
  entropy T*S    EENTRO =        -0.00000000
  eigenvalues    EBANDS =     -2656.81189345
  atomic energy  EATOM  =      8420.94593319
  ---------------------------------------------------
  free energy    TOTEN  =      -426.90024846 eV

  energy without entropy =     -426.90024846  energy(sigma->0) =     -426.90024846


--------------------------------------------------------------------------------------------------------




--------------------------------------- Iteration      1(  12)  ---------------------------------------


    POTLOK:  cpu time    4.5375: real time    4.5736
    SETDIJ:  cpu time    0.0535: real time    0.0536
    TRIAL :  cpu time    1.1599: real time    1.1709
    CORREC:  cpu time    5.0321: real time    5.0713
    CHARGE:  cpu time    0.1784: real time    0.1808
    --------------------------------------------
      LOOP:  cpu time   10.9894: real time   11.0844

 eigenvalue-minimisations  :     0
 total energy-change (2. order) :-0.3645832E-01  (-0.1142843E-01)
 number of electron     216.0000000 magnetization 
 augmentation part       -0.4004503 magnetization 

 Free energy of the ion-electron system (eV)
  ---------------------------------------------------
  alpha Z        PSCENC =        47.94900195
  Ewald energy   TEWEN  =     48385.02047969
  -Hartree energ DENC   =    -55346.37400918
  -exchange      EXHF   =         0.00000000
  -V(xc)+E(xc)   XCENC  =       442.42784930
  PAW double counting   =    102360.99290588  -102077.36577925
  entropy T*S    EENTRO =        -0.00000000
  eigenvalues    EBANDS =     -2660.53308836
  atomic energy  EATOM  =      8420.94593319
  ---------------------------------------------------
  free energy    TOTEN  =      -426.93670678 eV

  energy without entropy =     -426.93670678  energy(sigma->0) =     -426.93670678


--------------------------------------------------------------------------------------------------------




--------------------------------------- Iteration      1(  13)  ---------------------------------------


    POTLOK:  cpu time    4.5170: real time    4.5514
    SETDIJ:  cpu time    0.0534: real time    0.0536
    TRIAL :  cpu time    1.1527: real time    1.1663
    CORREC:  cpu time    5.0269: real time    5.0654
    CHARGE:  cpu time    0.1784: real time    0.1801
    --------------------------------------------
      LOOP:  cpu time   10.9889: real time   11.0919

 eigenvalue-minimisations  :     0
 total energy-change (2. order) :-0.1142174E-01  (-0.3671125E-02)
 number of electron     216.0000000 magnetization 
 augmentation part       -0.3997632 magnetization 

 Free energy of the ion-electron system (eV)
  ---------------------------------------------------
  alpha Z        PSCENC =        47.94900195
  Ewald energy   TEWEN  =     48385.02047969
  -Hartree energ DENC   =    -55345.88764979
  -exchange      EXHF   =         0.00000000
  -V(xc)+E(xc)   XCENC  =       442.41237398
  PAW double counting   =    102202.18624323  -101918.57243405
  entropy T*S    EENTRO =        -0.00000000
  eigenvalues    EBANDS =     -2661.00207671
  atomic energy  EATOM  =      8420.94593319
  ---------------------------------------------------
  free energy    TOTEN  =      -426.94812851 eV

  energy without entropy =     -426.94812851  energy(sigma->0) =     -426.94812851


--------------------------------------------------------------------------------------------------------




--------------------------------------- Iteration      1(  14)  ---------------------------------------


    POTLOK:  cpu time    4.5225: real time    4.5535
    SETDIJ:  cpu time    0.0535: real time    0.0537
    TRIAL :  cpu time    1.1591: real time    1.1701
    CORREC:  cpu time    5.0092: real time    5.0461
    CHARGE:  cpu time    0.1773: real time    0.1790
    --------------------------------------------
      LOOP:  cpu time   10.9563: real time   11.0390

 eigenvalue-minimisations  :     0
 total energy-change (2. order) :-0.3672214E-02  (-0.1647545E-02)
 number of electron     216.0000000 magnetization 
 augmentation part       -0.3993020 magnetization 

 Free energy of the ion-electron system (eV)
  ---------------------------------------------------
  alpha Z        PSCENC =        47.94900195
  Ewald energy   TEWEN  =     48385.02047969
  -Hartree energ DENC   =    -55345.97124318
  -exchange      EXHF   =         0.00000000
  -V(xc)+E(xc)   XCENC  =       442.41291284
  PAW double counting   =    102183.15662086  -101899.54905111
  entropy T*S    EENTRO =        -0.00000000
  eigenvalues    EBANDS =     -2660.91645498
  atomic energy  EATOM  =      8420.94593319
  ---------------------------------------------------
  free energy    TOTEN  =      -426.95180073 eV

  energy without entropy =     -426.95180073  energy(sigma->0) =     -426.95180073


--------------------------------------------------------------------------------------------------------




--------------------------------------- Iteration      1(  15)  ---------------------------------------


    POTLOK:  cpu time    4.4921: real time    4.5244
    SETDIJ:  cpu time    0.0533: real time    0.0535
    TRIAL :  cpu time    1.1551: real time    1.1658
    CORREC:  cpu time    5.0222: real time    5.0595
    CHARGE:  cpu time    0.1778: real time    0.1796
    --------------------------------------------
      LOOP:  cpu time   10.9493: real time   11.0508

 eigenvalue-minimisations  :     0
 total energy-change (2. order) :-0.1649955E-02  (-0.1045978E-02)
 number of electron     216.0000000 magnetization 
 augmentation part       -0.3988031 magnetization 

 Free energy of the ion-electron system (eV)
  ---------------------------------------------------
  alpha Z        PSCENC =        47.94900195
  Ewald energy   TEWEN  =     48385.02047969
  -Hartree energ DENC   =    -55345.55707395
  -exchange      EXHF   =         0.00000000
  -V(xc)+E(xc)   XCENC  =       442.39664709
  PAW double counting   =    102175.08470338  -101891.47635358
  entropy T*S    EENTRO =        -0.00000000
  eigenvalues    EBANDS =     -2661.31678846
  atomic energy  EATOM  =      8420.94593319
  ---------------------------------------------------
  free energy    TOTEN  =      -426.95345068 eV

  energy without entropy =     -426.95345068  energy(sigma->0) =     -426.95345068


--------------------------------------------------------------------------------------------------------




--------------------------------------- Iteration      1(  16)  ---------------------------------------


    POTLOK:  cpu time    4.5201: real time    4.5514
    SETDIJ:  cpu time    0.0535: real time    0.0536
    TRIAL :  cpu time    1.1543: real time    1.1651
    CORREC:  cpu time    4.9994: real time    5.0365
    CHARGE:  cpu time    0.1773: real time    0.1790
    --------------------------------------------
      LOOP:  cpu time   10.9407: real time   11.0486

 eigenvalue-minimisations  :     0
 total energy-change (2. order) :-0.1045739E-02  (-0.5687479E-03)
 number of electron     216.0000000 magnetization 
 augmentation part       -0.3986643 magnetization 

 Free energy of the ion-electron system (eV)
  ---------------------------------------------------
  alpha Z        PSCENC =        47.94900195
  Ewald energy   TEWEN  =     48385.02047969
  -Hartree energ DENC   =    -55346.02823324
  -exchange      EXHF   =         0.00000000
  -V(xc)+E(xc)   XCENC  =       442.41088365
  PAW double counting   =    102113.37914646  -101829.77210103
  entropy T*S    EENTRO =        -0.00000000
  eigenvalues    EBANDS =     -2660.85960709
  atomic energy  EATOM  =      8420.94593319
  ---------------------------------------------------
  free energy    TOTEN  =      -426.95449642 eV

  energy without entropy =     -426.95449642  energy(sigma->0) =     -426.95449642


--------------------------------------------------------------------------------------------------------




--------------------------------------- Iteration      1(  17)  ---------------------------------------


    POTLOK:  cpu time    4.4819: real time    4.5120
    SETDIJ:  cpu time    0.0534: real time    0.0537
    TRIAL :  cpu time    1.1540: real time    1.1653
    CORREC:  cpu time    4.9958: real time    5.0352
    CHARGE:  cpu time    0.1775: real time    0.1792
    --------------------------------------------
      LOOP:  cpu time   10.8771: real time   10.9990

 eigenvalue-minimisations  :     0
 total energy-change (2. order) :-0.5678031E-03  (-0.2204460E-03)
 number of electron     216.0000000 magnetization 
 augmentation part       -0.3988360 magnetization 

 Free energy of the ion-electron system (eV)
  ---------------------------------------------------
  alpha Z        PSCENC =        47.94900195
  Ewald energy   TEWEN  =     48385.02047969
  -Hartree energ DENC   =    -55346.34569068
  -exchange      EXHF   =         0.00000000
  -V(xc)+E(xc)   XCENC  =       442.41952955
  PAW double counting   =    102058.83494454  -101775.22728317
  entropy T*S    EENTRO =        -0.00000000
  eigenvalues    EBANDS =     -2660.55197930
  atomic energy  EATOM  =      8420.94593319
  ---------------------------------------------------
  free energy    TOTEN  =      -426.95506422 eV

  energy without entropy =     -426.95506422  energy(sigma->0) =     -426.95506422


--------------------------------------------------------------------------------------------------------




--------------------------------------- Iteration      1(  18)  ---------------------------------------


    POTLOK:  cpu time    4.5002: real time    4.5382
    SETDIJ:  cpu time    0.0534: real time    0.0536
    TRIAL :  cpu time    1.1508: real time    1.1636
    CORREC:  cpu time    4.9538: real time    5.0001
    CHARGE:  cpu time    0.1782: real time    0.1802
    --------------------------------------------
      LOOP:  cpu time   10.8933: real time   10.9929

 eigenvalue-minimisations  :     0
 total energy-change (2. order) :-0.2201882E-03  (-0.8085811E-04)
 number of electron     216.0000000 magnetization 
 augmentation part       -0.3989922 magnetization 

 Free energy of the ion-electron system (eV)
  ---------------------------------------------------
  alpha Z        PSCENC =        47.94900195
  Ewald energy   TEWEN  =     48385.02047969
  -Hartree energ DENC   =    -55346.27197475
  -exchange      EXHF   =         0.00000000
  -V(xc)+E(xc)   XCENC  =       442.41773461
  PAW double counting   =    102058.21773053  -101774.60844601
  entropy T*S    EENTRO =        -0.00000000
  eigenvalues    EBANDS =     -2660.62574362
  atomic energy  EATOM  =      8420.94593319
  ---------------------------------------------------
  free energy    TOTEN  =      -426.95528441 eV

  energy without entropy =     -426.95528441  energy(sigma->0) =     -426.95528441


--------------------------------------------------------------------------------------------------------




--------------------------------------- Iteration      1(  19)  ---------------------------------------


    POTLOK:  cpu time    4.4736: real time    4.5159
    SETDIJ:  cpu time    0.0533: real time    0.0536
    TRIAL :  cpu time    1.1524: real time    1.1661
    CORREC:  cpu time    4.9506: real time    4.9958
    CHARGE:  cpu time    0.1776: real time    0.1801
    --------------------------------------------
      LOOP:  cpu time   10.8654: real time   10.9991

 eigenvalue-minimisations  :     0
 total energy-change (2. order) :-0.8048429E-04  (-0.3431436E-04)
 number of electron     216.0000000 magnetization 
 augmentation part       -0.3991156 magnetization 

 Free energy of the ion-electron system (eV)
  ---------------------------------------------------
  alpha Z        PSCENC =        47.94900195
  Ewald energy   TEWEN  =     48385.02047969
  -Hartree energ DENC   =    -55346.30643042
  -exchange      EXHF   =         0.00000000
  -V(xc)+E(xc)   XCENC  =       442.41981675
  PAW double counting   =    102080.70769308  -101797.09820504
  entropy T*S    EENTRO =        -0.00000000
  eigenvalues    EBANDS =     -2660.59365411
  atomic energy  EATOM  =      8420.94593319
  ---------------------------------------------------
  free energy    TOTEN  =      -426.95536490 eV

  energy without entropy =     -426.95536490  energy(sigma->0) =     -426.95536490


--------------------------------------------------------------------------------------------------------




--------------------------------------- Iteration      1(  20)  ---------------------------------------


    POTLOK:  cpu time    4.5098: real time    4.5489
    SETDIJ:  cpu time    0.0532: real time    0.0535
    TRIAL :  cpu time    1.1555: real time    1.1666
    CORREC:  cpu time    4.9785: real time    5.0171
    CHARGE:  cpu time    0.1780: real time    0.1797
    --------------------------------------------
      LOOP:  cpu time   10.9447: real time   11.0369

 eigenvalue-minimisations  :     0
 total energy-change (2. order) :-0.3399784E-04  (-0.1663087E-04)
 number of electron     216.0000000 magnetization 
 augmentation part       -0.3991098 magnetization 

 Free energy of the ion-electron system (eV)
  ---------------------------------------------------
  alpha Z        PSCENC =        47.94900195
  Ewald energy   TEWEN  =     48385.02047969
  -Hartree energ DENC   =    -55346.22819574
  -exchange      EXHF   =         0.00000000
  -V(xc)+E(xc)   XCENC  =       442.41754157
  PAW double counting   =    102099.42184660  -101815.81204560
  entropy T*S    EENTRO =        -0.00000000
  eigenvalues    EBANDS =     -2660.66996056
  atomic energy  EATOM  =      8420.94593319
  ---------------------------------------------------
  free energy    TOTEN  =      -426.95539890 eV

  energy without entropy =     -426.95539890  energy(sigma->0) =     -426.95539890


--------------------------------------------------------------------------------------------------------




--------------------------------------- Iteration      1(  21)  ---------------------------------------


    POTLOK:  cpu time    4.5532: real time    4.5857
    SETDIJ:  cpu time    0.0534: real time    0.0536
    TRIAL :  cpu time    1.1539: real time    1.1657
    CORREC:  cpu time    4.9105: real time    4.9510
    CHARGE:  cpu time    0.1781: real time    0.1799
    --------------------------------------------
      LOOP:  cpu time   10.8850: real time   10.9764

 eigenvalue-minimisations  :     0
 total energy-change (2. order) :-0.1646075E-04  (-0.7366897E-05)
 number of electron     216.0000000 magnetization 
 augmentation part       -0.3991004 magnetization 

 Free energy of the ion-electron system (eV)
  ---------------------------------------------------
  alpha Z        PSCENC =        47.94900195
  Ewald energy   TEWEN  =     48385.02047969
  -Hartree energ DENC   =    -55346.22592437
  -exchange      EXHF   =         0.00000000
  -V(xc)+E(xc)   XCENC  =       442.41803625
  PAW double counting   =    102106.81922631  -101823.20994456
  entropy T*S    EENTRO =        -0.00000000
  eigenvalues    EBANDS =     -2660.67222382
  atomic energy  EATOM  =      8420.94593319
  ---------------------------------------------------
  free energy    TOTEN  =      -426.95541536 eV

  energy without entropy =     -426.95541536  energy(sigma->0) =     -426.95541536


--------------------------------------------------------------------------------------------------------




--------------------------------------- Iteration      1(  22)  ---------------------------------------


    POTLOK:  cpu time    4.5436: real time    4.5749
    SETDIJ:  cpu time    0.0534: real time    0.0536
    TRIAL :  cpu time    1.1556: real time    1.1664
    CORREC:  cpu time    4.9655: real time    5.0030
    CHARGE:  cpu time    0.1776: real time    0.1797
    --------------------------------------------
      LOOP:  cpu time   10.9477: real time   11.0299

 eigenvalue-minimisations  :     0
 total energy-change (2. order) :-0.7377253E-05  (-0.3080432E-05)
 number of electron     216.0000000 magnetization 
 augmentation part       -0.3990719 magnetization 

 Free energy of the ion-electron system (eV)
  ---------------------------------------------------
  alpha Z        PSCENC =        47.94900195
  Ewald energy   TEWEN  =     48385.02047969
  -Hartree energ DENC   =    -55346.17350115
  -exchange      EXHF   =         0.00000000
  -V(xc)+E(xc)   XCENC  =       442.41647178
  PAW double counting   =    102105.96560385  -101822.35632522
  entropy T*S    EENTRO =        -0.00000000
  eigenvalues    EBANDS =     -2660.72308683
  atomic energy  EATOM  =      8420.94593319
  ---------------------------------------------------
  free energy    TOTEN  =      -426.95542273 eV

  energy without entropy =     -426.95542273  energy(sigma->0) =     -426.95542273


--------------------------------------------------------------------------------------------------------




--------------------------------------- Iteration      1(  23)  ---------------------------------------


    POTLOK:  cpu time    4.5306: real time    4.5626
    SETDIJ:  cpu time    0.0533: real time    0.0535
    TRIAL :  cpu time    1.1519: real time    1.1642
    CORREC:  cpu time    5.0006: real time    5.0410
    CHARGE:  cpu time    0.1780: real time    0.1798
    --------------------------------------------
      LOOP:  cpu time   10.9876: real time   11.0752

 eigenvalue-minimisations  :     0
 total energy-change (2. order) :-0.3104957E-05  (-0.1218468E-05)
 number of electron     216.0000000 magnetization 
 augmentation part       -0.3990647 magnetization 

 Free energy of the ion-electron system (eV)
  ---------------------------------------------------
  alpha Z        PSCENC =        47.94900195
  Ewald energy   TEWEN  =     48385.02047969
  -Hartree energ DENC   =    -55346.17808717
  -exchange      EXHF   =         0.00000000
  -V(xc)+E(xc)   XCENC  =       442.41688127
  PAW double counting   =    102103.75488194  -101820.14575950
  entropy T*S    EENTRO =        -0.00000000
  eigenvalues    EBANDS =     -2660.71875722
  atomic energy  EATOM  =      8420.94593319
  ---------------------------------------------------
  free energy    TOTEN  =      -426.95542584 eV

  energy without entropy =     -426.95542584  energy(sigma->0) =     -426.95542584


--------------------------------------------------------------------------------------------------------




--------------------------------------- Iteration      1(  24)  ---------------------------------------


    POTLOK:  cpu time    4.5131: real time    4.5449
    SETDIJ:  cpu time    0.0533: real time    0.0535
    TRIAL :  cpu time    1.1544: real time    1.1657
    CORREC:  cpu time    4.9239: real time    4.9611
    CHARGE:  cpu time    0.1789: real time    0.1807
    --------------------------------------------
      LOOP:  cpu time   10.8946: real time   10.9822

 eigenvalue-minimisations  :     0
 total energy-change (2. order) :-0.1243418E-05  (-0.5596779E-06)
 number of electron     216.0000000 magnetization 
 augmentation part       -0.3990634 magnetization 

 Free energy of the ion-electron system (eV)
  ---------------------------------------------------
  alpha Z        PSCENC =        47.94900195
  Ewald energy   TEWEN  =     48385.02047969
  -Hartree energ DENC   =    -55346.17319009
  -exchange      EXHF   =         0.00000000
  -V(xc)+E(xc)   XCENC  =       442.41687275
  PAW double counting   =    102102.85585568  -101819.24669492
  entropy T*S    EENTRO =        -0.00000000
  eigenvalues    EBANDS =     -2660.72368535
  atomic energy  EATOM  =      8420.94593319
  ---------------------------------------------------
  free energy    TOTEN  =      -426.95542708 eV

  energy without entropy =     -426.95542708  energy(sigma->0) =     -426.95542708


--------------------------------------------------------------------------------------------------------




--------------------------------------- Iteration      1(  25)  ---------------------------------------


    POTLOK:  cpu time    4.5102: real time    4.5426
    SETDIJ:  cpu time    0.0533: real time    0.0535
    TRIAL :  cpu time    1.1545: real time    1.1659
    CORREC:  cpu time    4.9597: real time    4.9980
    CHARGE:  cpu time    0.1787: real time    0.1805
    --------------------------------------------
      LOOP:  cpu time   10.9288: real time   11.0145

 eigenvalue-minimisations  :     0
 total energy-change (2. order) :-0.5750044E-06  (-0.2491974E-06)
 number of electron     216.0000000 magnetization 
 augmentation part       -0.3990598 magnetization 

 Free energy of the ion-electron system (eV)
  ---------------------------------------------------
  alpha Z        PSCENC =        47.94900195
  Ewald energy   TEWEN  =     48385.02047969
  -Hartree energ DENC   =    -55346.17646587
  -exchange      EXHF   =         0.00000000
  -V(xc)+E(xc)   XCENC  =       442.41691604
  PAW double counting   =    102102.78176604  -101819.17255688
  entropy T*S    EENTRO =        -0.00000000
  eigenvalues    EBANDS =     -2660.72050183
  atomic energy  EATOM  =      8420.94593319
  ---------------------------------------------------
  free energy    TOTEN  =      -426.95542766 eV

  energy without entropy =     -426.95542766  energy(sigma->0) =     -426.95542766


--------------------------------------------------------------------------------------------------------




--------------------------------------- Iteration      1(  26)  ---------------------------------------


    POTLOK:  cpu time    4.4427: real time    4.4789
    SETDIJ:  cpu time    0.0535: real time    0.0536
    TRIAL :  cpu time    1.1522: real time    1.1642
    CORREC:  cpu time    4.9441: real time    4.9875
    CHARGE:  cpu time    0.1780: real time    0.1800
    --------------------------------------------
      LOOP:  cpu time   10.8282: real time   10.9234

 eigenvalue-minimisations  :     0
 total energy-change (2. order) :-0.2537126E-06  (-0.1033773E-06)
 number of electron     216.0000000 magnetization 
 augmentation part       -0.3990600 magnetization 

 Free energy of the ion-electron system (eV)
  ---------------------------------------------------
  alpha Z        PSCENC =        47.94900195
  Ewald energy   TEWEN  =     48385.02047969
  -Hartree energ DENC   =    -55346.18345426
  -exchange      EXHF   =         0.00000000
  -V(xc)+E(xc)   XCENC  =       442.41711512
  PAW double counting   =    102102.83725111  -101819.22805695
  entropy T*S    EENTRO =        -0.00000000
  eigenvalues    EBANDS =     -2660.71369777
  atomic energy  EATOM  =      8420.94593319
  ---------------------------------------------------
  free energy    TOTEN  =      -426.95542791 eV

  energy without entropy =     -426.95542791  energy(sigma->0) =     -426.95542791


--------------------------------------------------------------------------------------------------------




--------------------------------------- Iteration      1(  27)  ---------------------------------------


    POTLOK:  cpu time    4.5157: real time    4.5531
    SETDIJ:  cpu time    0.0533: real time    0.0539
    TRIAL :  cpu time    1.1547: real time    1.1660
    CORREC:  cpu time    4.9963: real time    5.0340
    CHARGE:  cpu time    0.1785: real time    0.1803
    --------------------------------------------
      LOOP:  cpu time   10.9639: real time   11.0534

 eigenvalue-minimisations  :     0
 total energy-change (2. order) :-0.1044536E-06  (-0.4894456E-07)
 number of electron     216.0000000 magnetization 
 augmentation part       -0.3990581 magnetization 

 Free energy of the ion-electron system (eV)
  ---------------------------------------------------
  alpha Z        PSCENC =        47.94900195
  Ewald energy   TEWEN  =     48385.02047969
  -Hartree energ DENC   =    -55346.18339912
  -exchange      EXHF   =         0.00000000
  -V(xc)+E(xc)   XCENC  =       442.41703427
  PAW double counting   =    102102.89319527  -101819.28398612
  entropy T*S    EENTRO =        -0.00000000
  eigenvalues    EBANDS =     -2660.71368716
  atomic energy  EATOM  =      8420.94593319
  ---------------------------------------------------
  free energy    TOTEN  =      -426.95542801 eV

  energy without entropy =     -426.95542801  energy(sigma->0) =     -426.95542801


--------------------------------------------------------------------------------------------------------




--------------------------------------- Iteration      1(  28)  ---------------------------------------


    POTLOK:  cpu time    4.5341: real time    4.5663
    SETDIJ:  cpu time    0.0534: real time    0.0535
    TRIAL :  cpu time    1.1550: real time    1.1658
    CORREC:  cpu time    4.9845: real time    5.0223
    EDDIAG:  cpu time    0.4330: real time    0.4379
    CHARGE:  cpu time    0.1784: real time    0.1802
[...]
      21 -86.0104      22 -86.0178      23 -86.0405      24 -86.0330      25 -86.0247
      26 -86.0271      27 -86.0190      28 -86.0392      29 -86.0199      30 -86.0246
      31 -86.0507      32 -86.0370      33 -86.0365      34 -86.0274      35 -86.0236
      36 -86.0282      37 -86.0298      38 -86.0333      39 -86.0331      40 -86.0293
      41 -86.0311      42 -86.0354      43 -86.0279      44 -86.0357      45 -86.0231
      46 -86.0214      47 -86.0327      48 -86.0283      49 -86.0320      50 -86.0304
      51 -89.8700      52-120.3693      53-120.3806
 
 
 
 E-fermi :  -4.3885     XC(G=0):  -2.1084     alpha+bet : -1.6890

 Fermi energy:        -4.3885362452

 k-point     1 :       0.0000    0.0000    0.0000
  band No.  band energies     occupation 
      1     -27.6331      2.00000
      2     -26.6367      2.00000
      3     -22.4628      2.00000
      4     -21.5467      2.00000
      5     -21.5309      2.00000
      6     -21.5232      2.00000
      7     -21.5218      2.00000
      8     -21.5191      2.00000
      9     -21.5144      2.00000
     10     -19.7039      2.00000
     11     -19.6963      2.00000
     12     -19.6869      2.00000
     13     -19.6866      2.00000
     14     -19.6834      2.00000
     15     -19.6828      2.00000
     16     -18.8058      2.00000
     17     -18.7996      2.00000
     18     -18.7948      2.00000
     19     -18.7934      2.00000
     20     -18.7907      2.00000
     21     -18.7898      2.00000
     22     -16.6456      2.00000
     23     -16.6419      2.00000
     24     -16.6357      2.00000
     25     -16.6335      2.00000
     26     -16.6288      2.00000
     27     -16.6278      2.00000
     28     -15.6728      2.00000
     29     -15.6694      2.00000
     30     -15.6632      2.00000
     31     -15.6627      2.00000
     32     -15.6598      2.00000
     33     -15.6589      2.00000
     34     -14.3221      2.00000
     35     -14.3191      2.00000
     36     -14.3171      2.00000
     37     -14.3151      2.00000
     38     -14.3137      2.00000
     39     -14.3131      2.00000
     40     -12.5360      2.00000
     41     -11.9531      2.00000
     42     -11.9490      2.00000
     43     -11.9418      2.00000
     44     -11.9407      2.00000
     45     -11.9403      2.00000
     46     -11.9372      2.00000
     47     -11.8659      2.00000
     48     -11.8596      2.00000
     49     -11.8574      2.00000
     50     -11.8564      2.00000
     51     -11.8514      2.00000
     52     -11.8502      2.00000
     53     -11.5778      2.00000
     54     -11.3978      2.00000
     55     -11.3223      2.00000
     56     -10.5570      2.00000
     57     -10.4900      2.00000
     58     -10.4894      2.00000
     59     -10.4876      2.00000
     60     -10.4871      2.00000
     61     -10.4863      2.00000
     62     -10.4844      2.00000
     63      -9.5251      2.00000
     64      -9.5213      2.00000
     65      -9.5196      2.00000
     66      -9.5181      2.00000
     67      -9.5148      2.00000
     68      -9.3389      2.00000
     69      -9.2336      2.00000
     70      -9.2296      2.00000
     71      -9.2281      2.00000
     72      -9.2272      2.00000
     73      -9.2260      2.00000
     74      -9.2238      2.00000
     75      -9.1676      2.00000
     76      -9.1659      2.00000
     77      -9.1647      2.00000
     78      -9.1624      2.00000
     79      -9.1621      2.00000
     80      -9.1593      2.00000
     81      -7.9728      2.00000
     82      -7.8108      2.00000
     83      -7.5856      2.00000
     84      -7.5832      2.00000
     85      -7.5821      2.00000
     86      -7.5778      2.00000
     87      -7.5771      2.00000
     88      -7.5763      2.00000
     89      -7.4004      2.00000
     90      -7.3881      2.00000
     91      -7.3852      2.00000
     92      -7.3625      2.00000
     93      -7.3523      2.00000
     94      -7.1953      2.00000
     95      -6.5029      2.00000
     96      -6.4991      2.00000
     97      -6.4905      2.00000
     98      -6.4834      2.00000
     99      -6.4699      2.00000
    100      -6.3831      2.00000
    101      -6.1065      2.00000
    102      -6.1040      2.00000
    103      -4.5273      2.00000
    104      -4.5187      2.00000
    105      -4.5086      2.00000
    106      -4.5036      2.00000
    107      -4.5021      2.00000
    108      -4.4966      2.00000
    109      -1.7518      0.00000
    110      -1.7397      0.00000
    111      -1.7171      0.00000
    112      -1.7130      0.00000
    113      -1.7094      0.00000
    114      -1.6985      0.00000
    115      -0.2016      0.00000
    116       0.0999      0.00000
    117       0.1074      0.00000
    118       0.1218      0.00000
    119       0.1307      0.00000
    120       0.1386      0.00000
    121       0.1544      0.00000
    122       0.5336      0.00000
    123       0.7882      0.00000
    124       0.9864      0.00000
    125       1.0902      0.00000
    126       1.1501      0.00000
    127       1.1670      0.00000
    128       1.1685      0.00000
    129       1.2638      0.00000
    130       1.2864      0.00000
    131       1.3920      0.00000
    132       1.7617      0.00000
    133       1.8307      0.00000
    134       1.9778      0.00000
    135       2.0247      0.00000
    136       2.0439      0.00000


--------------------------------------------------------------------------------------------------------


 soft charge-density along one line, spin component           1
         0         1         2         3         4         5         6         7         8         9
 total charge-density along one line
 
 pseudopotential strength for first ion, spin component:           1
 12.717  21.401  -0.000   0.000   0.000  -0.000   0.000   0.000
 21.401  36.011  -0.000   0.000   0.000  -0.000   0.000   0.000
 -0.000  -0.000  -3.220  -0.000   0.000  -5.772  -0.000   0.000
  0.000   0.000  -0.000  -3.224  -0.000  -0.000  -5.779  -0.000
  0.000   0.000   0.000  -0.000  -3.220   0.000  -0.000  -5.772
 -0.000  -0.000  -5.772  -0.000   0.000 -10.323  -0.000   0.000
  0.000   0.000  -0.000  -5.779  -0.000  -0.000 -10.335  -0.000
  0.000   0.000   0.000  -0.000  -5.772   0.000  -0.000 -10.323
 total augmentation occupancy for first ion, spin component:           1
  7.413  -2.549  -0.001  -0.001   0.000   0.000   0.001  -0.000
 -2.549   0.915   0.000   0.000  -0.000  -0.000  -0.000   0.000
 -0.001   0.000   6.888  -0.008   0.000  -2.287   0.003  -0.000
 -0.001   0.000  -0.008   2.991  -0.000   0.003  -0.762   0.000
  0.000  -0.000   0.000  -0.000   6.888  -0.000   0.000  -2.287
  0.000  -0.000  -2.287   0.003  -0.000   0.774  -0.001   0.000
  0.001  -0.000   0.003  -0.762   0.000  -0.001   0.201   0.000
 -0.000   0.000  -0.000   0.000  -2.287   0.000   0.000   0.774


------------------------ aborting loop because EDIFF is reached ----------------------------------------


    FORLOC:  cpu time    0.0670: real time    0.0676
    FORNL :  cpu time    0.8434: real time    0.8478
    FORCOR:  cpu time    4.3525: real time    4.3833
    OFIELD:  cpu time    0.0016: real time    0.0016

 VOLUME and BASIS-vectors are now :
 -----------------------------------------------------------------------------
  energy-cutoff  :     1000.00
  volume of cell :     3288.85
      direct lattice vectors                 reciprocal lattice vectors
    12.325000000  0.000000000  0.000000000     0.081135903  0.046843835  0.000000000
    -6.162500000 10.673763102  0.000000000     0.000000000  0.093687670  0.000000000
     0.000000000  0.000000000 25.000000000     0.000000000  0.000000000  0.040000000

  length of vectors
    12.325000000 12.325000000 25.000000000     0.093687670  0.093687670  0.040000000


 FORCES acting on ions:
    Electron-Ion                     Ewald-Force                    Non-Local-Force
 -----------------------------------------------------------------------------------------------
   0.139E+02 0.122E+02 0.243E+02   -.139E+02 -.122E+02 -.243E+02   0.139E-01 -.105E-01 0.187E-01
   0.239E+02 0.120E+02 0.335E+02   -.239E+02 -.120E+02 -.335E+02   0.241E-01 -.173E-01 -.832E-03
   0.125E+02 0.313E+02 0.435E+02   -.125E+02 -.314E+02 -.435E+02   0.915E-03 0.671E-01 0.631E-01
   0.219E+02 0.323E+02 0.783E+02   -.220E+02 -.323E+02 -.785E+02   0.108E+00 0.477E-01 0.999E-01
   0.153E+02 0.363E+01 0.244E+02   -.153E+02 -.361E+01 -.244E+02   0.254E-03 -.222E-01 -.160E-02
   0.161E+02 -.264E+01 0.251E+02   -.161E+02 0.266E+01 -.251E+02   -.337E-01 -.857E-02 -.824E-02
   0.358E+02 0.155E+02 0.649E+02   -.359E+02 -.154E+02 -.649E+02   0.643E-01 -.111E+00 -.771E-01
   0.363E+02 -.118E+02 0.712E+02   -.362E+02 0.119E+02 -.711E+02   -.437E-01 -.353E-01 -.311E+00
   -.136E+02 0.297E+02 0.458E+02   0.136E+02 -.297E+02 -.458E+02   -.261E-01 -.124E-01 -.667E-01
   -.273E+02 0.236E+02 0.780E+02   0.274E+02 -.237E+02 -.779E+02   -.701E-01 0.262E-01 -.352E+00
   0.366E+01 -.315E+01 0.190E+02   -.364E+01 0.312E+01 -.190E+02   -.985E-02 0.811E-02 -.611E-02
   0.285E+01 -.229E+01 0.176E+02   -.285E+01 0.229E+01 -.176E+02   -.181E-01 0.784E-02 0.142E-02
   0.133E+02 -.345E+02 0.840E+02   -.134E+02 0.345E+02 -.839E+02   0.136E+00 0.303E-01 -.381E+00
   0.559E+01 -.321E+02 0.446E+02   -.564E+01 0.320E+02 -.445E+02   0.348E-01 -.372E-02 -.507E-01
   -.137E+02 0.865E+01 0.240E+02   0.137E+02 -.863E+01 -.240E+02   0.222E-01 -.125E-01 -.274E-02
   -.209E+02 0.579E+01 0.291E+02   0.209E+02 -.579E+01 -.291E+02   0.564E-02 0.491E-02 -.219E-01
   -.192E+01 -.797E+00 0.168E+02   0.193E+01 0.793E+00 -.168E+02   -.230E-02 -.455E-02 0.173E-02
   0.111E+01 0.720E+01 0.181E+02   -.111E+01 -.720E+01 -.181E+02   -.105E-01 0.452E-02 0.829E-02
   -.440E+01 -.248E+02 0.316E+02   0.438E+01 0.248E+02 -.316E+02   0.426E-01 -.531E-04 0.286E-01
   -.173E+01 -.113E+02 0.203E+02   0.173E+01 0.113E+02 -.203E+02   0.234E-02 -.443E-02 -.967E-03
   0.256E+02 -.110E+02 0.372E+02   -.255E+02 0.110E+02 -.371E+02   -.143E-01 -.269E-02 -.505E-01
   0.144E+02 -.125E+02 0.273E+02   -.144E+02 0.125E+02 -.273E+02   -.195E-01 0.292E-01 -.686E-02
   -.649E+01 0.165E+02 0.110E+03   0.667E+01 -.166E+02 -.110E+03   -.179E+00 0.118E+00 -.183E+00
   -.137E+02 -.264E+02 0.101E+03   0.136E+02 0.265E+02 -.101E+03   0.124E+00 -.127E+00 -.110E+00
   0.631E+01 -.285E+01 0.192E+02   -.628E+01 0.285E+01 -.192E+02   -.183E-01 0.394E-02 -.949E-02
   0.110E+01 0.569E+01 0.194E+02   -.109E+01 -.569E+01 -.194E+02   -.146E-01 0.597E-02 -.201E-02
   -.348E+02 0.357E+01 0.522E+02   0.348E+02 -.364E+01 -.522E+02   0.855E-02 0.412E-01 -.939E-01
   -.307E+02 -.136E+02 0.450E+02   0.307E+02 0.135E+02 -.450E+02   -.525E-01 0.499E-01 0.344E-01
   0.878E+01 -.182E+02 0.289E+02   -.879E+01 0.181E+02 -.289E+02   0.587E-02 0.192E-01 -.128E-01
   0.813E+00 -.636E+01 0.206E+02   -.834E+00 0.634E+01 -.206E+02   0.715E-02 0.156E-01 -.929E-02
   -.260E+02 -.284E+02 0.583E+02   0.261E+02 0.285E+02 -.584E+02   -.785E-01 -.546E-01 0.113E+00
   -.136E+02 -.246E+02 0.343E+02   0.136E+02 0.246E+02 -.343E+02   -.310E-02 -.402E-01 0.372E-01
   0.707E+00 0.296E+01 0.174E+02   -.708E+00 -.296E+01 -.174E+02   0.116E-01 -.110E-01 0.328E-02
   0.208E+01 0.303E+01 0.190E+02   -.208E+01 -.300E+01 -.190E+02   0.116E-02 -.112E-01 -.645E-02
   -.945E+01 0.109E+01 0.212E+02   0.944E+01 -.110E+01 -.212E+02   0.152E-01 0.250E-02 -.250E-02
   -.802E+01 -.317E+01 0.205E+02   0.803E+01 0.316E+01 -.205E+02   -.121E-01 0.108E-01 -.420E-02
   -.167E+02 -.874E+01 0.252E+02   0.167E+02 0.874E+01 -.252E+02   -.194E-01 0.373E-02 0.175E-02
   -.928E+01 -.757E+01 0.201E+02   0.929E+01 0.757E+01 -.201E+02   -.118E-01 0.383E-02 0.107E-01
   -.880E+01 -.116E+02 0.218E+02   0.881E+01 0.116E+02 -.218E+02   -.125E-01 -.126E-01 0.672E-02
   -.128E+01 -.267E+01 0.180E+02   0.127E+01 0.268E+01 -.180E+02   -.794E-03 -.160E-02 0.743E-02
   0.330E+01 0.780E+01 0.190E+02   -.329E+01 -.781E+01 -.190E+02   -.228E-02 0.129E-01 0.728E-02
   0.113E+02 0.177E+02 0.263E+02   -.113E+02 -.177E+02 -.263E+02   0.160E-01 0.204E-01 0.172E-01
   0.886E+00 0.142E+02 0.217E+02   -.876E+00 -.142E+02 -.217E+02   -.797E-02 0.112E-01 -.617E-03
   0.401E+00 0.287E+02 0.361E+02   -.365E+00 -.287E+02 -.361E+02   -.520E-01 0.124E-01 0.308E-01
   -.271E+01 0.543E+01 0.207E+02   0.271E+01 -.542E+01 -.207E+02   0.141E-02 -.102E-01 -.695E-02
   -.118E+02 0.152E+02 0.275E+02   0.118E+02 -.152E+02 -.275E+02   -.122E-02 -.490E-02 -.156E-01
   -.185E+01 -.528E+01 0.188E+02   0.184E+01 0.528E+01 -.188E+02   0.168E-01 0.192E-02 0.452E-03
   -.495E+01 0.205E+01 0.180E+02   0.493E+01 -.205E+01 -.180E+02   0.136E-01 -.207E-02 -.811E-02
   0.361E+00 -.327E+01 0.176E+02   -.353E+00 0.326E+01 -.176E+02   0.774E-02 -.236E-02 0.455E-02
   0.517E+01 0.381E+01 0.179E+02   -.517E+01 -.381E+01 -.179E+02   0.184E-02 0.789E-02 0.383E-02
   0.405E+00 -.219E+00 -.432E+03   -.388E+00 0.201E+00 0.432E+03   -.379E-01 0.164E-01 -.897E-01
   -.229E+03 0.155E+03 -.662E+03   0.279E+03 -.189E+03 0.665E+03   -.506E+02 0.346E+02 -.235E+01
   0.229E+03 -.155E+03 -.639E+03   -.279E+03 0.189E+03 0.636E+03   0.506E+02 -.347E+02 0.404E+01
 -----------------------------------------------------------------------------------------------
   0.687E-01 0.191E-01 -.299E+00   0.171E-12 -.142E-12 0.114E-12   -.689E-01 -.190E-01 0.297E+00
 
 
 POSITION                                       TOTAL-FORCE (eV/Angst)
 -----------------------------------------------------------------------------------
     11.98348      0.00342      0.01417        -0.000292     -0.004474      0.000782
     -0.34154      1.42665      0.01100         0.016473      0.012273      0.002583
      2.12355      0.00315      0.01249         0.007861     -0.019851      0.013704
      2.12326      1.42653      0.00641        -0.009104      0.010897     -0.056880
     10.75099      2.13819      0.01213        -0.002122     -0.003250      0.004476
     -1.57382      3.56123      0.01110        -0.008128      0.008546      0.003825
      0.89078      2.13854      0.00548        -0.026582      0.012768     -0.053341
      0.89099      3.56147      0.00181        -0.028009      0.029967     -0.143831
      4.58864      0.00346      0.01135         0.013417      0.055012     -0.012079
      4.58894      1.42623      0.00646         0.039832     -0.034890     -0.191467
      9.51854      4.27281      0.01369         0.009194     -0.016405      0.000327
     -2.80632      5.69591      0.01434        -0.017213      0.010182      0.000909
      2.12300      4.27302      0.00000        -0.028396      0.074788     -0.239833
      2.12335      5.69594      0.00581        -0.008720     -0.066457     -0.010324
      7.05344      0.00333      0.01399         0.003231     -0.000763      0.004958
      7.05353      1.42635      0.01368        -0.007531      0.007389      0.003214
      8.28610      6.40752      0.01601         0.006311     -0.007953     -0.000214
     -4.03885      7.83070      0.01636        -0.009730      0.009627      0.000035
      3.35586      6.40753      0.01007         0.015093      0.006703      0.008015
      3.35599      7.83072      0.01320        -0.003378     -0.007169      0.000716
     -0.34146      4.27290      0.00723         0.039067     -0.024447     -0.001879
     -0.34138      5.69591      0.00946        -0.007595      0.008122      0.008583
      3.35624      2.13791      0.00222        -0.002596     -0.019517     -0.371069
      3.35573      3.56155      0.00139         0.020476      0.039815     -0.256035
     -1.57395      6.40758      0.01311         0.017534     -0.000912     -0.000910
     -1.57385      7.83068      0.01438        -0.005144      0.003633      0.000092
      5.82093      2.13784      0.01033        -0.032084     -0.032619     -0.027737
      5.82114      3.56097      0.01156         0.001250      0.000798      0.010841
      0.89092      6.40755      0.00907        -0.001193      0.001179      0.007981
      0.89106      7.83068      0.01235        -0.013263     -0.005122      0.000327
      4.58871      4.27293      0.00850        -0.002520     -0.019196      0.005117
      4.58852      5.69606      0.01149        -0.001901      0.021846      0.007131
      9.51845      0.00337      0.01490         0.010410     -0.009588      0.000264
      9.51855      1.42644      0.01438        -0.004440      0.016608     -0.000451
      8.28593      2.13803      0.01453         0.002131     -0.009986      0.001761
      8.28613      3.56115      0.01464        -0.004124      0.002593      0.000495
      7.05356      4.27269      0.01457        -0.001672     -0.003310      0.002518
      7.05362      5.69588      0.01553        -0.003449      0.002953     -0.000145
      5.82112      6.40755      0.01489        -0.001169     -0.003392     -0.000656
      5.82102      7.83073      0.01579        -0.008294      0.007118     -0.000268
      7.05363      8.54227      0.01631         0.005965     -0.005031      0.000865
     -5.27149      9.96549      0.01495        -0.001003      0.000661     -0.001087
     -2.80638      8.54234      0.01558         0.001947      0.003987      0.000361
     -2.80627      9.96553      0.01362        -0.014779     -0.003848      0.010442
     -0.34149      8.54239      0.01378         0.007707      0.001229      0.000873
     -0.34138      9.96550      0.01354        -0.007977      0.003651      0.005559
      2.12343      8.54232      0.01336         0.008614      0.000921      0.000558
      2.12354      9.96544      0.01469        -0.009618      0.001176     -0.002124
      4.58846      8.54235      0.01505         0.015117     -0.010703      0.001227
      4.58853      9.96550      0.01517        -0.001676      0.009316      0.000983
      3.04930      2.68154      2.64866        -0.020280     -0.001011      0.243565
      4.02070      2.02068      2.71308        -0.513583      0.395313      0.428181
      2.07767      3.34267      2.58920         0.565939     -0.449179      0.589062
 -----------------------------------------------------------------------------------
    total drift:                               -0.000239      0.000091     -0.002379


--------------------------------------------------------------------------------------------------------



  FREE ENERGIE OF THE ION-ELECTRON SYSTEM (eV)
  ---------------------------------------------------
  free  energy   TOTEN  =      -426.95542806 eV

  energy  without entropy=     -426.95542806  energy(sigma->0) =     -426.95542806
 


--------------------------------------------------------------------------------------------------------


    POTLOK:  cpu time    4.3545: real time    4.3873


--------------------------------------------------------------------------------------------------------


 writing wavefunctions
     LOOP+:  cpu time  309.1796: real time  312.2562
    4ORBIT:  cpu time    0.0000: real time    0.0000

 total amount of memory used by VASP MPI-rank0   100580. kBytes
=======================================================================

   base      :      30000. kBytes
   nonl-proj :       8229. kBytes
   fftplans  :      18352. kBytes
   grid      :      30208. kBytes
   one-center:          6. kBytes
   wavefun   :      13785. kBytes
 
  
  
 General timing and accounting informations for this job:
 ========================================================
  
                  Total CPU time used (sec):      350.960
                            User time (sec):      327.411
                          System time (sec):       23.548
                         Elapsed time (sec):      355.467
  
                   Maximum memory used (kb):      784128.
                   Average memory used (kb):          N/A
  
                          Minor page faults:       426513
                          Major page faults:           85
                 Voluntary context switches:         3721
