 vasp.6.2.1 16May21 (build Nov 06 2021 14:46:37) complex                        
  
 executed on             LinuxIFC date 2025.03.03  17:29:52
 running on  112 total cores
 distrk:  each k-point on  112 cores,    1 groups
 distr:  one band on NCORE=  28 cores,    4 groups


--------------------------------------------------------------------------------------------------------


 INCAR:
   ALGO = Conjugate
   NPAR = 4
   ISMEAR = 0
   SIGMA = 0.01
   PREC = Accurate
   EDIFF = 1E-7
   ENCUT = 1000
   ISIF = 0
   GGA = MK
   LUSE_VDW = .TRUE.
   PARAM1 = 0.1234
   PARAM2 = 0.711357
   ZAB_VDW = -1.8867
   AGGAC = 0.0000
   LASPH = .TRUE.

 POTCAR:    PAW_PBE C_h 06Feb2004                 
 POTCAR:    PAW_PBE O_h 06Feb2004                 
 -----------------------------------------------------------------------------
|                                                                             |
|           W    W    AA    RRRRR   N    N  II  N    N   GGGG   !!!           |
|           W    W   A  A   R    R  NN   N  II  NN   N  G    G  !!!           |
|           W    W  A    A  R    R  N N  N  II  N N  N  G       !!!           |
|           W WW W  AAAAAA  RRRRR   N  N N  II  N  N N  G  GGG   !            |
|           WW  WW  A    A  R   R   N   NN  II  N   NN  G    G                |
|           W    W  A    A  R    R  N    N  II  N    N   GGGG   !!!           |
|                                                                             |
|     For optimal performance we recommend to set                             |
|       NCORE = 2 up to number-of-cores-per-socket                            |
|     NCORE specifies how many cores store one orbital (NPAR=cpu/NCORE).      |
|     This setting can greatly improve the performance of VASP for DFT.       |
|     The default, NCORE=1 might be grossly inefficient on modern             |
|     multi-core architectures or massively parallel machines. Do your        |
|     own testing! More info at https://www.vasp.at/wiki/index.php/NCORE      |
|     Unfortunately you need to use the default for GW and RPA                |
|     calculations (for HF NCORE is supported but not extensively tested      |
|     yet).                                                                   |
|                                                                             |
 -----------------------------------------------------------------------------

 -----------------------------------------------------------------------------
|                                                                             |
|               ----> ADVICE to this user running VASP <----                  |
|                                                                             |
|     You have switched on vdW-DFT.                                           |
|     This routine was written and supplied by Jiri Klimes. We recommend      |
|     that you carefully read and cite the following publications:            |
|       J. Klimes, D.R. Bowler, A. Michelides                                 |
|          J. Phys.: Cond Matt. 22 022201 (2010)                              |
|       J. Klimes, D.R. Bowler, A. Michelides                                 |
|          Phys. Rev. B. 83, 195131 (2011)                                    |
|     and references therein.                                                 |
|                                                                             |
 -----------------------------------------------------------------------------

 POTCAR:    PAW_PBE C_h 06Feb2004                 
   VRHFIN =C: s2p2                                                                                  
   LEXCH  = PE                                                                                      
   EATOM  =   147.1560 eV,   10.8157 Ry                                                             
                                                                                                    
   TITEL  = PAW_PBE C_h 06Feb2004                                                                   
   LULTRA =        F    use ultrasoft PP ?                                                          
   IUNSCR =        1    unscreen: 0-lin 1-nonlin 2-no                                               
   RPACOR =    0.800    partial core radius                                                         
   POMASS =   12.011; ZVAL   =    4.000    mass and valenz                                          
   RCORE  =    1.100    outmost cutoff radius                                                       
   RWIGS  =    1.630; RWIGS  =    0.863    wigner-seitz radius (au A)                               
   ENMAX  =  700.000; ENMIN  =  500.000 eV                                                          
   ICORE  =        2    local potential                                                             
   LCOR   =        T    correct aug charges                                                         
   LPAW   =        T    paw PP                                                                      
   EAUG   =  946.768                                                                                
   DEXC   =    0.000                                                                                
   RMAX   =    1.128    core radius for proj-oper                                                   
   RAUG   =    1.300    factor for augmentation sphere                                              
   RDEP   =    1.162    radius for radial grids                                                     
   RDEPT  =    1.088    core radius for aug-charge                                                  
                                                                                                    
   Atomic configuration                                                                             
    4 entries                                                                                       
     n  l   j            E        occ.                                                              
     1  0  0.50      -273.3789   2.0000                                                             
     2  0  0.50       -13.7508   2.0000                                                             
     2  1  0.50        -5.2854   2.0000                                                             
     3  2  1.50        -5.4423   0.0000                                                             
   Description                                                                                      
     l       E           TYP  RCUT    TYP  RCUT                                                     
     0    -13.7508458     23  1.100                                                                 
     0     -8.2022199     23  1.100                                                                 
     1     -5.2854383     23  1.100                                                                 
     1      1.1560700     23  1.100                                                                 
     2     -5.4423304      7  1.100                                                                 
  local pseudopotential read in
  partial core-charges read in
  partial kinetic energy density read in
  atomic valenz-charges read in
  non local Contribution for L=           0  read in
    real space projection operators read in
  non local Contribution for L=           0  read in
    real space projection operators read in
  non local Contribution for L=           1  read in
    real space projection operators read in
  non local Contribution for L=           1  read in
    real space projection operators read in
    PAW grid and wavefunctions read in
 
   number of l-projection  operators is LMAX  =           4
   number of lm-projection operators is LMMAX =           8
 
 POTCAR:    PAW_PBE O_h 06Feb2004                 
   VRHFIN =O: s2p4                                                                                  
   LEXCH  = PE                                                                                      
   EATOM  =   432.3788 eV,   31.7789 Ry                                                             
                                                                                                    
   TITEL  = PAW_PBE O_h 06Feb2004                                                                   
   LULTRA =        F    use ultrasoft PP ?                                                          
   IUNSCR =        1    unscreen: 0-lin 1-nonlin 2-no                                               
   RPACOR =    0.800    partial core radius                                                         
   POMASS =   16.000; ZVAL   =    6.000    mass and valenz                                          
   RCORE  =    1.100    outmost cutoff radius                                                       
   RWIGS  =    1.400; RWIGS  =    0.741    wigner-seitz radius (au A)                               
   ENMAX  =  700.000; ENMIN  =  500.000 eV                                                          
   ICORE  =        2    local potential                                                             
   LCOR   =        T    correct aug charges                                                         
   LPAW   =        T    paw PP                                                                      
   EAUG   =  888.804                                                                                
   DEXC   =    0.000                                                                                
   RMAX   =    1.128    core radius for proj-oper                                                   
   RAUG   =    1.300    factor for augmentation sphere                                              
   RDEP   =    1.125    radius for radial grids                                                     
   RDEPT  =    1.088    core radius for aug-charge                                                  
                                                                                                    
   Atomic configuration                                                                             
    4 entries                                                                                       
     n  l   j            E        occ.                                                              
     1  0  0.50      -514.6923   2.0000                                                             
     2  0  0.50       -23.9615   2.0000                                                             
     2  1  0.50        -9.0305   4.0000                                                             
     3  2  1.50        -9.5241   0.0000                                                             
   Description                                                                                      
     l       E           TYP  RCUT    TYP  RCUT                                                     
     0    -23.9615319     23  1.100                                                                 
     0    -25.3221145     23  1.100                                                                 
     1     -9.0304911     23  1.100                                                                 
     1     -5.4802209     23  1.100                                                                 
     2     -9.5240782      7  1.100                                                                 
  local pseudopotential read in
  partial core-charges read in
  partial kinetic energy density read in
  atomic valenz-charges read in
  non local Contribution for L=           0  read in
    real space projection operators read in
  non local Contribution for L=           0  read in
    real space projection operators read in
  non local Contribution for L=           1  read in
    real space projection operators read in
  non local Contribution for L=           1  read in
    real space projection operators read in
    PAW grid and wavefunctions read in
 
   number of l-projection  operators is LMAX  =           4
   number of lm-projection operators is LMMAX =           8
 
 -----------------------------------------------------------------------------
|                                                                             |
|               ----> ADVICE to this user running VASP <----                  |
|                                                                             |
|     You have a (more or less) 'large supercell' and for larger cells it     |
|     might be more efficient to use real-space projection operators.         |
|     Therefore, try LREAL= Auto in the INCAR file.                           |
|     Mind: For very accurate calculation, you might also keep the            |
|     reciprocal projection scheme (i.e. LREAL=.FALSE.).                      |
|                                                                             |
 -----------------------------------------------------------------------------

 -----------------------------------------------------------------------------
|                                                                             |
|               ----> ADVICE to this user running VASP <----                  |
|                                                                             |
|     You enforced a specific xc type in the INCAR file but a different       |
|     type was found in the POTCAR file.                                      |
|     I HOPE YOU KNOW WHAT YOU ARE DOING!                                     |
|                                                                             |
 -----------------------------------------------------------------------------

  PAW_PBE C_h 06Feb2004                 :
 energy of atom  1       EATOM= -147.1560
 kinetic energy error for atom=    0.0031 (will be added to EATOM!!)
  PAW_PBE O_h 06Feb2004                 :
 energy of atom  2       EATOM= -432.3788
 kinetic energy error for atom=    0.0171 (will be added to EATOM!!)
 
 
 POSCAR:  C  O
  positions in cartesian coordinates
  No initial velocities read in
 exchange correlation table for  LEXCH =       43
   RHO(1)=    0.500       N(1)  =     2000
   RHO(2)=  100.500       N(2)  =     4000
 


--------------------------------------------------------------------------------------------------------


 ion  position               nearest neighbor table
   1  0.972  0.000  0.001-  50 1.42   2 1.42  42 1.42
   2  0.039  0.134  0.001-   5 1.42   7 1.42   1 1.42
   3  0.172  0.000  0.001-  42 1.42  44 1.42   4 1.42
   4  0.239  0.134  0.000-   7 1.42   3 1.42  23 1.42
   5  0.972  0.200  0.001-   6 1.42   2 1.42  34 1.42
   6  0.039  0.334  0.001-   5 1.42  21 1.42  11 1.42
   7  0.172  0.200  0.000-   8 1.42   2 1.42   4 1.42
   8  0.239  0.334  0.000-  13 1.42   7 1.42  21 1.42
   9  0.372  0.000  0.001-  10 1.42  44 1.42  46 1.42
  10  0.439  0.134  0.000-  27 1.42   9 1.42  23 1.42
  11  0.972  0.400  0.001-  12 1.42  36 1.42   6 1.42
  12  0.039  0.534  0.001-  25 1.42  11 1.42  17 1.42
  13  0.372  0.400  0.000-   8 1.42  14 1.42  24 1.42
  14  0.439  0.534  0.000-  13 1.42  29 1.42  19 1.42
  15  0.572  0.000  0.001-  46 1.42  16 1.42  48 1.42
  16  0.639  0.134  0.001-  15 1.42  35 1.42  27 1.42
  17  0.972  0.600  0.001-  38 1.42  18 1.42  12 1.42
  18  0.039  0.734  0.001-  43 1.42  41 1.42  17 1.42
  19  0.572  0.600  0.001-  14 1.42  20 1.42  32 1.42
  20  0.639  0.734  0.001-  49 1.42  19 1.42  47 1.42
  21  0.172  0.400  0.000-  22 1.42   8 1.42   6 1.42
  22  0.239  0.534  0.000-  21 1.42  29 1.42  25 1.42
  23  0.372  0.200  0.000-  10 1.42   4 1.42  24 1.42
  24  0.439  0.334  0.000-  13 1.42  31 1.42  23 1.42
  25  0.172  0.600  0.001-  26 1.42  12 1.42  22 1.42
  26  0.239  0.734  0.001-  25 1.42  45 1.42  43 1.42
  27  0.572  0.200  0.001-  10 1.42  28 1.42  16 1.42
  28  0.639  0.334  0.001-  27 1.42  37 1.42  31 1.42
  29  0.372  0.600  0.000-  22 1.42  14 1.42  30 1.42
  30  0.439  0.734  0.001-  47 1.42  29 1.42  45 1.42
  31  0.572  0.400  0.000-  32 1.42  28 1.42  24 1.42
  32  0.639  0.534  0.001-  31 1.42  39 1.42  19 1.42
  33  0.772  0.000  0.001-  34 1.42  48 1.42  50 1.42
  34  0.839  0.134  0.001-  33 1.42   5 1.42  35 1.42
  35  0.772  0.200  0.001-  36 1.42  16 1.42  34 1.42
  36  0.839  0.334  0.001-  35 1.42  11 1.42  37 1.42
  37  0.772  0.400  0.001-  28 1.42  38 1.42  36 1.42
  38  0.839  0.534  0.001-  17 1.42  37 1.42  39 1.42
  39  0.772  0.600  0.001-  40 1.42  38 1.42  32 1.42
  40  0.839  0.734  0.001-  39 1.42  49 1.42  41 1.42
  41  0.972  0.800  0.001-  18 1.42  42 1.42  40 1.42
  42  0.039  0.934  0.001-   3 1.42  41 1.42   1 1.42
  43  0.172  0.800  0.001-  18 1.42  44 1.42  26 1.42
  44  0.239  0.934  0.001-   9 1.42  43 1.42   3 1.42
  45  0.372  0.800  0.001-  26 1.42  46 1.42  30 1.42
  46  0.439  0.934  0.001-  15 1.42  45 1.42   9 1.42
  47  0.572  0.800  0.001-  30 1.42  48 1.42  20 1.42
  48  0.639  0.934  0.001-  47 1.42  33 1.42  15 1.42
  49  0.772  0.800  0.001-  50 1.42  20 1.42  40 1.42
  50  0.839  0.934  0.001-  49 1.42   1 1.42  33 1.42
  51  0.373  0.251  0.157-  52 1.18  53 1.18
  52  0.421  0.189  0.161-  51 1.18
  53  0.325  0.313  0.155-  51 1.18
 
  LATTYP: Found a hexagonal cell.
 ALAT       =    12.3250000000
 C/A-ratio  =     1.6227180527
  
  Lattice vectors:
  
 A1 = (  12.3250000000,   0.0000000000,   0.0000000000)
 A2 = (  -6.1625000000,  10.6737631016,   0.0000000000)
 A3 = (   0.0000000000,   0.0000000000,  20.0000000000)


Analysis of symmetry for initial positions (statically):
=====================================================================
 Subroutine PRICEL returns:
 Original cell was already a primitive cell.
 

 Routine SETGRP: Setting up the symmetry group for a 
 hexagonal supercell.


 Subroutine GETGRP returns: Found  1 space group operations
 (whereof  1 operations were pure point group operations)
 out of a pool of 24 trial point group operations.


The static configuration has the point symmetry C_1 .


Analysis of symmetry for dynamics (positions and initial velocities):
=====================================================================
 Subroutine PRICEL returns:
 Original cell was already a primitive cell.
 

 Routine SETGRP: Setting up the symmetry group for a 
 hexagonal supercell.


 Subroutine GETGRP returns: Found  1 space group operations
 (whereof  1 operations were pure point group operations)
 out of a pool of 24 trial point group operations.


The dynamic configuration has the point symmetry C_1 .


 Subroutine INISYM returns: Found  1 space group operations
 (whereof  1 operations are pure point group operations),
 and found     1 'primitive' translations


----------------------------------------------------------------------------------------

                                     Primitive cell                                     

  volume of cell :    2631.0826

  direct lattice vectors                    reciprocal lattice vectors
    12.325000000  0.000000000  0.000000000     0.081135903  0.046843835  0.000000000
    -6.162500000 10.673763102  0.000000000     0.000000000  0.093687670  0.000000000
     0.000000000  0.000000000 20.000000000     0.000000000  0.000000000  0.050000000

  length of vectors
    12.325000000 12.325000000 20.000000000     0.093687670  0.093687670  0.050000000

  position of ions in fractional coordinates (direct lattice)
     0.972450841  0.000320818  0.000708389
     0.039118382  0.133659505  0.000550216
     0.172443627  0.000295449  0.000624535
     0.239096278  0.133647917  0.000320585
     0.972452058  0.200322012  0.000606523
     0.039128360  0.333643771  0.000555187
     0.172451764  0.200354552  0.000273959
     0.239124359  0.333665720  0.000090325
     0.372465565  0.000324403  0.000567391
     0.439137473  0.133619939  0.000322923
     0.972449824  0.400309362  0.000684513
     0.039124981  0.533636789  0.000716763
     0.372416176  0.400329481  0.000000000
     0.439099602  0.533638981  0.000290518
     0.572443676  0.000312125  0.000699475
     0.639110207  0.133631751  0.000684093
     0.972452703  0.600305653  0.000800361
     0.039124495  0.733640359  0.000818141
     0.572433471  0.600306242  0.000503618
     0.639111888  0.733641879  0.000659881
     0.172454630  0.400318228  0.000361306
     0.239120185  0.533636548  0.000473136
     0.372459750  0.200295993  0.000111246
     0.439107096  0.333673419  0.000069702
     0.172452155  0.600311506  0.000655425
     0.239123371  0.733638574  0.000718912
     0.572431082  0.200289171  0.000516621
     0.639112773  0.333618630  0.000577970
     0.372439808  0.600308022  0.000453556
     0.439116090  0.733637858  0.000617737
     0.572469358  0.400320504  0.000424897
     0.639119408  0.533650873  0.000574513
     0.772445723  0.000315427  0.000745201
     0.839116277  0.133640203  0.000719132
     0.772440513  0.200307432  0.000726291
     0.839120241  0.333635728  0.000731834
     0.772446320  0.400298367  0.000728722
     0.839118980  0.533633964  0.000776376
     0.772456143  0.600308173  0.000744639
     0.839115033  0.733643180  0.000789390
     0.972455313  0.800305582  0.000815291
     0.039114714  0.933643289  0.000747563
     0.172457971  0.800312211  0.000779216
     0.239134551  0.933647193  0.000681063
     0.372451396  0.800316674  0.000689249
     0.439124489  0.933644769  0.000676788
     0.572441101  0.800310054  0.000668168
     0.639115067  0.933638985  0.000734556
     0.772445098  0.800313187  0.000752577
     0.839116614  0.933644338  0.000758538
     0.373021009  0.251226878  0.157490131
     0.420879805  0.189313152  0.160711224
     0.325156981  0.313167186  0.154517388

  ion indices of the primitive-cell ions
   primitive index   ion index
                 1           1
                 2           2
                 3           3
                 4           4
                 5           5
                 6           6
                 7           7
                 8           8
                 9           9
                10          10
                11          11
                12          12
                13          13
                14          14
                15          15
                16          16
                17          17
                18          18
                19          19
                20          20
                21          21
                22          22
                23          23
                24          24
                25          25
                26          26
                27          27
                28          28
                29          29
                30          30
                31          31
                32          32
                33          33
                34          34
                35          35
                36          36
                37          37
                38          38
                39          39
                40          40
                41          41
                42          42
                43          43
                44          44
                45          45
                46          46
                47          47
                48          48
                49          49
                50          50
                51          51
                52          52
                53          53

----------------------------------------------------------------------------------------

 
 
 KPOINTS: auto                                    

Automatic generation of k-mesh.
 Grid dimensions read from file:
 generate k-points for:    1    1    1

 Generating k-lattice:

  Cartesian coordinates                     Fractional coordinates (reciprocal lattice)
     0.081135903  0.046843835  0.000000000     1.000000000 -0.000000000  0.000000000
     0.000000000  0.093687670  0.000000000     0.000000000  1.000000000  0.000000000
     0.000000000  0.000000000  0.050000000     0.000000000  0.000000000  1.000000000

  Length of vectors
     0.093687670  0.093687670  0.050000000

  Shift w.r.t. Gamma in fractional coordinates (k-lattice)
     0.000000000  0.000000000  0.000000000

 
 Subroutine IBZKPT returns following result:
 ===========================================
 
 Found      1 irreducible k-points:
 
 Following reciprocal coordinates:
            Coordinates               Weight
  0.000000  0.000000  0.000000      1.000000
 
 Following cartesian coordinates:
            Coordinates               Weight
  0.000000  0.000000  0.000000      1.000000
 


--------------------------------------------------------------------------------------------------------




 Dimension of arrays:
   k-points           NKPTS =      1   k-points in BZ     NKDIM =      1   number of bands    NBANDS=    136
   number of dos      NEDOS =    301   number of ions     NIONS =     53
   non local maximal  LDIM  =      4   non local SUM 2l+1 LMDIM =      8
   total plane-waves  NPLWV = ******
   max r-space proj   IRMAX =      1   max aug-charges    IRDMAX=   9736
   dimension x,y,z NGX =   128 NGY =  128 NGZ =  210
   dimension x,y,z NGXF=   256 NGYF=  256 NGZF=  420
   support grid    NGXF=   256 NGYF=  256 NGZF=  420
   ions per type =              51   2
   NGX,Y,Z   is equivalent  to a cutoff of  17.27, 17.27, 17.46 a.u.
   NGXF,Y,Z  is equivalent  to a cutoff of  34.53, 34.53, 34.91 a.u.

 SYSTEM =  unknown system                          
 POSCAR =   C  O                                   

 Startparameter for this run:
   NWRITE =      2    write-flag & timer
   PREC   = accura    normal or accurate (medium, high low for compatibility)
   ISTART =      0    job   : 0-new  1-cont  2-samecut
   ICHARG =      2    charge: 1-file 2-atom 10-const
   ISPIN  =      1    spin polarized calculation?
   LNONCOLLINEAR =      F non collinear calculations
   LSORBIT =      F    spin-orbit coupling
   INIWAV =      1    electr: 0-lowe 1-rand  2-diag
   LASPH  =      T    aspherical Exc in radial PAW
 Electronic Relaxation 1
   ENCUT  = 1000.0 eV  73.50 Ry    8.57 a.u.  31.78 31.78 51.57*2*pi/ulx,y,z
   ENINI  = 1000.0     initial cutoff
   ENAUG  =  946.8 eV  augmentation charge cutoff
   NELM   =     60;   NELMIN=  2; NELMDL= -5     # of ELM steps 
   EDIFF  = 0.1E-06   stopping-criterion for ELM
   LREAL  =      F    real-space projection
   NLSPLINE    = F    spline interpolate recip. space projectors
   LCOMPAT=      F    compatible to vasp.4.4
   GGA_COMPAT  = T    GGA compatible to vasp.4.4-vasp.4.6
   LMAXPAW     = -100 max onsite density
   LMAXMIX     =    2 max onsite mixed and CHGCAR
   VOSKOWN=      0    Vosko Wilk Nusair interpolation
   ROPT   =    0.00000   0.00000
 Ionic relaxation
   EDIFFG = 0.1E-05   stopping-criterion for IOM
   NSW    =      0    number of steps for IOM
   NBLOCK =      1;   KBLOCK =      1    inner block; outer block 
   IBRION =     -1    ionic relax: 0-MD 1-quasi-New 2-CG
   NFREE  =      0    steps in history (QN), initial steepest desc. (CG)
   ISIF   =      0    stress and relaxation
   IWAVPR =     10    prediction:  0-non 1-charg 2-wave 3-comb
   ISYM   =      2    0-nonsym 1-usesym 2-fastsym
   LCORR  =      T    Harris-Foulkes like correction to forces

   POTIM  = 0.5000    time-step for ionic-motion
   TEIN   =    0.0    initial temperature
   TEBEG  =    0.0;   TEEND  =   0.0 temperature during run
   SMASS  =  -3.00    Nose mass-parameter (am)
   estimated Nose-frequenzy (Omega)   =  0.10E-29 period in steps = 0.13E+47 mass=  -0.347E-26a.u.
   SCALEE = 1.0000    scale energy and forces
   NPACO  =    256;   APACO  = 16.0  distance and # of slots for P.C.
   PSTRESS=    0.0 pullay stress

  Mass of Ions in am
   POMASS =  12.01 16.00
  Ionic Valenz
   ZVAL   =   4.00  6.00
  Atomic Wigner-Seitz radii
   RWIGS  =  -1.00 -1.00
  virtual crystal weights 
   VCA    =   1.00  1.00
   NELECT =     216.0000    total number of electrons
   NUPDOWN=      -1.0000    fix difference up-down

 DOS related values:
   EMIN   =  10.00;   EMAX   =-10.00  energy-range for DOS
   EFERMI =   0.00
   ISMEAR =     0;   SIGMA  =   0.01  broadening in eV -4-tet -1-fermi 0-gaus

 Electronic relaxation 2 (details)
   IALGO  =     58    algorithm
   LDIAG  =      T    sub-space diagonalisation (order eigenvalues)
   LSUBROT=      F    optimize rotation matrix (better conditioning)
   TURBO    =      0    0=normal 1=particle mesh
   IRESTART =      0    0=no restart 2=restart with 2 vectors
   NREBOOT  =      0    no. of reboots
   NMIN     =      0    reboot dimension
   EREF     =   0.00    reference energy to select bands
   IMIX   =      4    mixing-type and parameters
     AMIX     =   0.40;   BMIX     =  1.00
     AMIX_MAG =   1.60;   BMIX_MAG =  1.00
     AMIN     =   0.10
     WC   =   100.;   INIMIX=   1;  MIXPRE=   1;  MAXMIX= -45

 Intra band minimization:
   WEIMIN = 0.0000     energy-eigenvalue tresh-hold
   EBREAK =  0.18E-09  absolut break condition
   DEPER  =   0.30     relativ break condition  

   TIME   =   0.40     timestep for ELM

  volume/ion in A,a.u.               =      49.64       335.01
  Fermi-wavevector in a.u.,A,eV,Ry     =   0.711510  1.344560  6.887909  0.506247
  Thomas-Fermi vector in A             =   1.798641
 
 Write flags
   LWAVE        =      T    write WAVECAR
   LDOWNSAMPLE  =      F    k-point downsampling of WAVECAR
   LCHARG       =      T    write CHGCAR
   LVTOT        =      F    write LOCPOT, total local potential
   LVHAR        =      F    write LOCPOT, Hartree potential only
   LELF         =      F    write electronic localiz. function (ELF)
   LORBIT       =      0    0 simple, 1 ext, 2 COOP (PROOUT), +10 PAW based schemes


 Dipole corrections
   LMONO  =      F    monopole corrections only (constant potential shift)
   LDIPOL =      F    correct potential (dipole corrections)
   IDIPOL =      0    1-x, 2-y, 3-z, 4-all directions 
   EPSILON=  1.0000000 bulk dielectric constant

 Exchange correlation treatment:
   GGA     =    MK    GGA type
   LEXCH   =    43    internal setting for exchange type
   VOSKOWN=      0    Vosko Wilk Nusair interpolation
   LHFCALC =     F    Hartree Fock is set to
   LHFONE  =     F    Hartree Fock one center treatment
   AEXX    =    0.0000 exact exchange contribution

 vdW DFT:
   LUSE_VDW   =     T    switch on vdW DFT
   Zab_VDW    =******    correlation parameter
   PARAM1     =0.1234
   PARAM2     =0.7114
   PARAM3     =0.0000
   -- rVV10 --
   BPARAM     = 6.3000
   CPARAM     = 0.0093

 Linear response parameters
   LEPSILON=     F    determine dielectric tensor
   LRPA    =     F    only Hartree local field effects (RPA)
   LNABLA  =     F    use nabla operator in PAW spheres
   LVEL    =     F    velocity operator in full k-point grid
   LINTERFAST=   F  fast interpolation
   KINTER  =     0    interpolate to denser k-point grid
   CSHIFT  =0.1000    complex shift for real part using Kramers Kronig
   OMEGAMAX=  -1.0    maximum frequency
   DEG_THRESHOLD= 0.2000000E-02 threshold for treating states as degnerate
   RTIME   =   -0.100 relaxation time in fs
  (WPLASMAI=    0.000 imaginary part of plasma frequency in eV, 0.658/RTIME)
   DFIELD  = 0.0000000 0.0000000 0.0000000 field for delta impulse in time
 
 Orbital magnetization related:
   ORBITALMAG=     F  switch on orbital magnetization
   LCHIMAG   =     F  perturbation theory with respect to B field
   DQ        =  0.001000  dq finite difference perturbation B field
   LLRAUG    =     F  two centre corrections for induced B field



--------------------------------------------------------------------------------------------------------


 Static calculation
 charge density and potential will be updated during run
 non-spin polarized calculation
 Conjugate gradient for all bands (Freysoldt, et al. PRB 79, 241103 (2009))
 preconditioned conjugated gradient                                        
 perform sub-space diagonalisation
    before iterative eigenvector-optimisation
 modified Broyden-mixing scheme, WC =      100.0
 initial mixing is a Kerker type mixing with AMIX =  0.4000 and BMIX =      1.0000
 Hartree-type preconditioning will be used
 using additional bands           28
 reciprocal scheme for non local part
 use partial core corrections
 no Harris-corrections to forces 
 use gradient corrections 
 use of overlap-Matrix (Vanderbilt PP)
 Gauss-broadening in eV      SIGMA  =   0.01


--------------------------------------------------------------------------------------------------------


  energy-cutoff  :     1000.00
  volume of cell :     2631.08
      direct lattice vectors                 reciprocal lattice vectors
    12.325000000  0.000000000  0.000000000     0.081135903  0.046843835  0.000000000
    -6.162500000 10.673763102  0.000000000     0.000000000  0.093687670  0.000000000
     0.000000000  0.000000000 20.000000000     0.000000000  0.000000000  0.050000000

  length of vectors
    12.325000000 12.325000000 20.000000000     0.093687670  0.093687670  0.050000000


 
 k-points in units of 2pi/SCALE and weight: auto                                    
   0.00000000  0.00000000  0.00000000       1.000
 
 k-points in reciprocal lattice and weights: auto                                    
   0.00000000  0.00000000  0.00000000       1.000
 
 position of ions in fractional coordinates (direct lattice) 
   0.97245084  0.00032082  0.00070839
   0.03911838  0.13365950  0.00055022
   0.17244363  0.00029545  0.00062454
   0.23909628  0.13364792  0.00032058
   0.97245206  0.20032201  0.00060652
   0.03912836  0.33364377  0.00055519
   0.17245176  0.20035455  0.00027396
   0.23912436  0.33366572  0.00009033
   0.37246557  0.00032440  0.00056739
   0.43913747  0.13361994  0.00032292
   0.97244982  0.40030936  0.00068451
   0.03912498  0.53363679  0.00071676
   0.37241618  0.40032948  0.00000000
   0.43909960  0.53363898  0.00029052
   0.57244368  0.00031213  0.00069947
   0.63911021  0.13363175  0.00068409
   0.97245270  0.60030565  0.00080036
   0.03912449  0.73364036  0.00081814
   0.57243347  0.60030624  0.00050362
   0.63911189  0.73364188  0.00065988
   0.17245463  0.40031823  0.00036131
   0.23912018  0.53363655  0.00047314
   0.37245975  0.20029599  0.00011125
   0.43910710  0.33367342  0.00006970
   0.17245216  0.60031151  0.00065542
   0.23912337  0.73363857  0.00071891
   0.57243108  0.20028917  0.00051662
   0.63911277  0.33361863  0.00057797
   0.37243981  0.60030802  0.00045356
   0.43911609  0.73363786  0.00061774
   0.57246936  0.40032050  0.00042490
   0.63911941  0.53365087  0.00057451
   0.77244572  0.00031543  0.00074520
   0.83911628  0.13364020  0.00071913
   0.77244051  0.20030743  0.00072629
   0.83912024  0.33363573  0.00073183
   0.77244632  0.40029837  0.00072872
   0.83911898  0.53363396  0.00077638
   0.77245614  0.60030817  0.00074464
   0.83911503  0.73364318  0.00078939
   0.97245531  0.80030558  0.00081529
   0.03911471  0.93364329  0.00074756
   0.17245797  0.80031221  0.00077922
   0.23913455  0.93364719  0.00068106
   0.37245140  0.80031667  0.00068925
   0.43912449  0.93364477  0.00067679
   0.57244110  0.80031005  0.00066817
   0.63911507  0.93363899  0.00073456
   0.77244510  0.80031319  0.00075258
   0.83911661  0.93364434  0.00075854
   0.37302101  0.25122688  0.15749013
   0.42087980  0.18931315  0.16071122
   0.32515698  0.31316719  0.15451739
 
 position of ions in cartesian coordinates  (Angst):
  11.98347958  0.00342433  0.01416777
  -0.34154264  1.42664989  0.01100432
   2.12354700  0.00315355  0.01249070
   2.12325634  1.42652621  0.00641170
  10.75098721  2.13818970  0.01213047
  -1.57382270  3.56123457  0.01110375
   0.89078307  2.13853702  0.00547917
   0.89099273  3.56146885  0.00180651
   4.58863896  0.00346260  0.01134782
   4.58893648  1.42622757  0.00645846
   9.51853763  4.27280730  0.01369027
  -2.80632132  5.69591267  0.01433526
   2.12299894  4.27302204  0.00000000
   2.12335237  5.69593607  0.00581036
   7.05344483  0.00333155  0.01398950
   7.05352764  1.42635365  0.01368187
   8.28609598  6.40752033  0.01600723
  -4.03884931  7.83070339  0.01636283
   3.35585531  6.40752662  0.01007237
   3.35598594  7.83071962  0.01319763
  -0.34145776  4.27290193  0.00722612
  -0.34137895  5.69591010  0.00946273
   3.35624236  2.13791198  0.00222492
   3.35573251  3.56155103  0.00139405
  -1.57394684  6.40758280  0.01310850
  -1.57385216  7.83068434  0.01437823
   5.82093107  2.13783916  0.01033241
   5.82114012  3.56096622  0.01155939
   0.89092245  6.40754561  0.00907111
   0.89106251  7.83067670  0.01235474
   4.58870974  4.27292622  0.00849795
   4.58852320  5.69606300  0.01149026
   9.51844972  0.00336679  0.01490402
   9.51855036  1.42644387  0.01438264
   8.28593477  2.13803408  0.01452582
   8.28612680  3.56114872  0.01463668
   7.05356221  4.27268994  0.01457444
   7.05362213  5.69588251  0.01552751
   5.82112285  6.40754723  0.01489279
   5.82101669  7.83073350  0.01578780
   7.05362858  8.54227219  0.01630582
  -5.27148792  9.96548729  0.01495127
  -2.80637951  8.54234295  0.01558431
  -2.80626749  9.96552896  0.01362126
  -0.34148805  8.54239058  0.01378498
  -0.34137657  9.96550309  0.01353576
   2.12342586  8.54231992  0.01336337
   2.12354296  9.96544135  0.01469111
   4.58845581  8.54235337  0.01505154
   4.58852904  9.96549848  0.01517076
   3.04929830  2.68153618  3.14980262
   4.02070129  2.02068374  3.21422448
   2.07766701  3.34267235  3.09034775
 


--------------------------------------------------------------------------------------------------------


 k-point   1 :   0.0000 0.0000 0.0000  plane waves:  189031

 maximum and minimum number of plane-waves per node :      6755     6748

 maximum number of plane-waves:    189031
 maximum index in each direction: 
   IXMAX=   31   IYMAX=   31   IZMAX=   51
   IXMIN=  -31   IYMIN=  -31   IZMIN=  -51


 parallel 3D FFT for wavefunctions:
    minimum data exchange during FFTs selected (reduces bandwidth)
 parallel 3D FFT for charge:
    minimum data exchange during FFTs selected (reduces bandwidth)


 total amount of memory used by VASP MPI-rank0    85439. kBytes
=======================================================================

   base      :      30000. kBytes
   nonl-proj :       6586. kBytes
   fftplans  :      14299. kBytes
   grid      :      23511. kBytes
   one-center:          6. kBytes
   wavefun   :      11037. kBytes
 
     INWAV:  cpu time    0.0000: real time    0.0000
 Broyden mixing: mesh for mixing (old mesh)
   NGX = 63   NGY = 63   NGZ =103
  (NGX  =256   NGY  =256   NGZ  =420)
  gives a total of 408807 points

 initial charge density was supplied:
 charge density of overlapping atoms calculated
 number of electron     216.0000000 magnetization 
 keeping initial charge density in first step


--------------------------------------------------------------------------------------------------------


 Maximum index for augmentation-charges          459 (set IRDMAX)


--------------------------------------------------------------------------------------------------------


 First call to EWALD:  gamma=   0.128
 Maximum number of real-space cells 3x 3x 2
 Maximum number of reciprocal cells 3x 3x 4

    FEWALD:  cpu time    0.0029: real time    0.0030


--------------------------------------- Iteration      1(   1)  ---------------------------------------


vdW kernel read from vdw_kernel.bindat
  0.0000  0.2424  0.5071  0.7962  1.1119  1.4567  1.8333  2.2446  2.6937  3.1842
  3.7199  4.3049  4.9438  5.6415  6.4036  7.2358  8.1446  9.1372 10.2212 11.4050
 12.6979 14.1099 15.6519 17.3360 19.1751 21.1837 23.3773 25.7729 28.3892 31.2465
 34.3669 37.7748 41.4965 45.5611 50.0000
 
    POTLOK:  cpu time    3.4473: real time    3.4863
    SETDIJ:  cpu time    0.0556: real time    0.0559
    TRIAL :  cpu time    1.4952: real time    1.5116
    CORREC:  cpu time    0.0004: real time    0.0006
    --------------------------------------------
      LOOP:  cpu time    5.0006: real time    5.0762

 eigenvalue-minimisations  :   272
 total energy-change (2. order) : 0.2781605E+04  (-0.1099997E+05)
 number of electron     216.0000000 magnetization 
 augmentation part      216.0000000 magnetization 

 Free energy of the ion-electron system (eV)
  ---------------------------------------------------
  alpha Z        PSCENC =        59.93625244
  Ewald energy   TEWEN  =     34385.40656134
  -Hartree energ DENC   =    -40560.25757233
  -exchange      EXHF   =         0.00000000
  -V(xc)+E(xc)   XCENC  =       412.54723991
  PAW double counting   =      6548.36373666    -6261.59511771
  entropy T*S    EENTRO =        -0.00000000
  eigenvalues    EBANDS =      -223.74215153
  atomic energy  EATOM  =      8420.94593319
  ---------------------------------------------------
  free energy    TOTEN  =      2781.60488198 eV

  energy without entropy =     2781.60488198  energy(sigma->0) =     2781.60488198


--------------------------------------------------------------------------------------------------------




--------------------------------------- Iteration      1(   2)  ---------------------------------------


    TRIAL :  cpu time    2.0729: real time    2.0927
    CORREC:  cpu time    0.0001: real time    0.0001
    --------------------------------------------
      LOOP:  cpu time    2.1063: real time    2.1292

 eigenvalue-minimisations  :   432
 total energy-change (2. order) :-0.2423153E+04  (-0.2266754E+04)
 number of electron     216.0000000 magnetization 
 augmentation part      216.0000000 magnetization 

 Free energy of the ion-electron system (eV)
  ---------------------------------------------------
  alpha Z        PSCENC =        59.93625244
  Ewald energy   TEWEN  =     34385.40656134
  -Hartree energ DENC   =    -40560.25757233
  -exchange      EXHF   =         0.00000000
  -V(xc)+E(xc)   XCENC  =       412.54723991
  PAW double counting   =      6548.36373666    -6261.59511771
  entropy T*S    EENTRO =        -0.00000000
  eigenvalues    EBANDS =     -2646.89533790
  atomic energy  EATOM  =      8420.94593319
  ---------------------------------------------------
  free energy    TOTEN  =       358.45169561 eV

  energy without entropy =      358.45169561  energy(sigma->0) =      358.45169561


--------------------------------------------------------------------------------------------------------




--------------------------------------- Iteration      1(   3)  ---------------------------------------


    TRIAL :  cpu time    1.7934: real time    1.8165
    CORREC:  cpu time    0.0001: real time    0.0001
    --------------------------------------------
      LOOP:  cpu time    1.8436: real time    1.8672

 eigenvalue-minimisations  :   360
 total energy-change (2. order) :-0.7618877E+03  (-0.7561441E+03)
 number of electron     216.0000000 magnetization 
 augmentation part      216.0000000 magnetization 

 Free energy of the ion-electron system (eV)
  ---------------------------------------------------
  alpha Z        PSCENC =        59.93625244
  Ewald energy   TEWEN  =     34385.40656134
  -Hartree energ DENC   =    -40560.25757233
  -exchange      EXHF   =         0.00000000
  -V(xc)+E(xc)   XCENC  =       412.54723991
  PAW double counting   =      6548.36373666    -6261.59511771
  entropy T*S    EENTRO =        -0.00000000
  eigenvalues    EBANDS =     -3408.78308630
  atomic energy  EATOM  =      8420.94593319
  ---------------------------------------------------
  free energy    TOTEN  =      -403.43605280 eV

  energy without entropy =     -403.43605280  energy(sigma->0) =     -403.43605280


--------------------------------------------------------------------------------------------------------




--------------------------------------- Iteration      1(   4)  ---------------------------------------


    TRIAL :  cpu time    1.7370: real time    1.7534
    CORREC:  cpu time    0.0001: real time    0.0001
    --------------------------------------------
      LOOP:  cpu time    1.7519: real time    1.7894

 eigenvalue-minimisations  :   344
 total energy-change (2. order) :-0.5523591E+02  (-0.5470650E+02)
 number of electron     216.0000000 magnetization 
 augmentation part      216.0000000 magnetization 

 Free energy of the ion-electron system (eV)
  ---------------------------------------------------
  alpha Z        PSCENC =        59.93625244
  Ewald energy   TEWEN  =     34385.40656134
  -Hartree energ DENC   =    -40560.25757233
  -exchange      EXHF   =         0.00000000
  -V(xc)+E(xc)   XCENC  =       412.54723991
  PAW double counting   =      6548.36373666    -6261.59511771
  entropy T*S    EENTRO =        -0.00000000
  eigenvalues    EBANDS =     -3464.01899692
  atomic energy  EATOM  =      8420.94593319
  ---------------------------------------------------
  free energy    TOTEN  =      -458.67196341 eV

  energy without entropy =     -458.67196341  energy(sigma->0) =     -458.67196341


--------------------------------------------------------------------------------------------------------




--------------------------------------- Iteration      1(   5)  ---------------------------------------


    TRIAL :  cpu time    1.8953: real time    1.9134
    CORREC:  cpu time    0.0001: real time    0.0001
    CHARGE:  cpu time    0.1197: real time    0.1211
    --------------------------------------------
      LOOP:  cpu time    2.0813: real time    2.1021

 eigenvalue-minimisations  :   384
 total energy-change (2. order) :-0.1681466E+01  (-0.1674440E+01)
 number of electron     216.0000000 magnetization 
 augmentation part       -0.2294042 magnetization 

 Free energy of the ion-electron system (eV)
  ---------------------------------------------------
  alpha Z        PSCENC =        59.93625244
  Ewald energy   TEWEN  =     34385.40656134
  -Hartree energ DENC   =    -40560.25757233
  -exchange      EXHF   =         0.00000000
  -V(xc)+E(xc)   XCENC  =       412.54723991
  PAW double counting   =      6548.36373666    -6261.59511771
  entropy T*S    EENTRO =        -0.00000000
  eigenvalues    EBANDS =     -3465.70046255
  atomic energy  EATOM  =      8420.94593319
  ---------------------------------------------------
  free energy    TOTEN  =      -460.35342904 eV

  energy without entropy =     -460.35342904  energy(sigma->0) =     -460.35342904


--------------------------------------------------------------------------------------------------------




--------------------------------------- Iteration      1(   6)  ---------------------------------------


    POTLOK:  cpu time    3.1251: real time    3.1491
    SETDIJ:  cpu time    0.0543: real time    0.0545
    TRIAL :  cpu time    0.8574: real time    0.8662
    CORREC:  cpu time    3.4767: real time    3.5045
    CHARGE:  cpu time    0.1158: real time    0.1170
    --------------------------------------------
      LOOP:  cpu time    7.7308: real time    7.7946

 eigenvalue-minimisations  :     0
 total energy-change (2. order) : 0.5222987E+02  (-0.1654300E+02)
 number of electron     216.0000000 magnetization 
 augmentation part       -0.3291318 magnetization 

 Free energy of the ion-electron system (eV)
  ---------------------------------------------------
  alpha Z        PSCENC =        59.93625244
  Ewald energy   TEWEN  =     34385.40656134
  -Hartree energ DENC   =    -41973.57201615
  -exchange      EXHF   =         0.00000000
  -V(xc)+E(xc)   XCENC  =       460.03715592
  PAW double counting   =     80434.21698103   -80153.85600136
  entropy T*S    EENTRO =        -0.00000000
  eigenvalues    EBANDS =     -2041.23842133
  atomic energy  EATOM  =      8420.94593319
  ---------------------------------------------------
  free energy    TOTEN  =      -408.12355492 eV

  energy without entropy =     -408.12355492  energy(sigma->0) =     -408.12355492


--------------------------------------------------------------------------------------------------------




--------------------------------------- Iteration      1(   7)  ---------------------------------------


    POTLOK:  cpu time    3.6400: real time    3.6655
    SETDIJ:  cpu time    0.0643: real time    0.0645
    TRIAL :  cpu time    0.8919: real time    0.9011
    CORREC:  cpu time    4.1145: real time    4.1441
    CHARGE:  cpu time    0.1570: real time    0.1581
    --------------------------------------------
      LOOP:  cpu time    8.9245: real time    9.0174

 eigenvalue-minimisations  :     0
 total energy-change (2. order) :-0.1658930E+02  (-0.1770765E+01)
 number of electron     216.0000000 magnetization 
 augmentation part       -0.3742129 magnetization 

 Free energy of the ion-electron system (eV)
  ---------------------------------------------------
  alpha Z        PSCENC =        59.93625244
  Ewald energy   TEWEN  =     34385.40656134
  -Hartree energ DENC   =    -41451.34333079
  -exchange      EXHF   =         0.00000000
  -V(xc)+E(xc)   XCENC  =       442.54014419
  PAW double counting   =     95487.65102000   -95204.53536592
  entropy T*S    EENTRO =        -0.00000000
  eigenvalues    EBANDS =     -2565.31406532
  atomic energy  EATOM  =      8420.94593319
  ---------------------------------------------------
  free energy    TOTEN  =      -424.71285086 eV

  energy without entropy =     -424.71285086  energy(sigma->0) =     -424.71285086


--------------------------------------------------------------------------------------------------------




--------------------------------------- Iteration      1(   8)  ---------------------------------------


    POTLOK:  cpu time    3.4014: real time    3.4262
    SETDIJ:  cpu time    0.0925: real time    0.0928
    TRIAL :  cpu time    0.8614: real time    0.8699
    CORREC:  cpu time    3.4884: real time    3.5152
    CHARGE:  cpu time    0.1148: real time    0.1160
    --------------------------------------------
      LOOP:  cpu time    8.0624: real time    8.1338

 eigenvalue-minimisations  :     0
 total energy-change (2. order) :-0.1770258E+01  (-0.4567714E+00)
 number of electron     216.0000000 magnetization 
 augmentation part       -0.3912217 magnetization 

 Free energy of the ion-electron system (eV)
  ---------------------------------------------------
  alpha Z        PSCENC =        59.93625244
  Ewald energy   TEWEN  =     34385.40656134
  -Hartree energ DENC   =    -41429.82611736
  -exchange      EXHF   =         0.00000000
  -V(xc)+E(xc)   XCENC  =       442.13062238
  PAW double counting   =     99462.68386934   -99179.25131319
  entropy T*S    EENTRO =        -0.00000000
  eigenvalues    EBANDS =     -2588.50891730
  atomic energy  EATOM  =      8420.94593319
  ---------------------------------------------------
  free energy    TOTEN  =      -426.48310916 eV

  energy without entropy =     -426.48310916  energy(sigma->0) =     -426.48310916


--------------------------------------------------------------------------------------------------------




--------------------------------------- Iteration      1(   9)  ---------------------------------------


    POTLOK:  cpu time    3.1174: real time    3.1412
    SETDIJ:  cpu time    0.0659: real time    0.0661
    TRIAL :  cpu time    0.8534: real time    0.8620
    CORREC:  cpu time    3.4799: real time    3.5066
    CHARGE:  cpu time    0.1163: real time    0.1175
    --------------------------------------------
      LOOP:  cpu time    7.6940: real time    7.7679

 eigenvalue-minimisations  :     0
 total energy-change (2. order) :-0.4567630E+00  (-0.1559432E+00)
 number of electron     216.0000000 magnetization 
 augmentation part       -0.3993166 magnetization 

 Free energy of the ion-electron system (eV)
  ---------------------------------------------------
  alpha Z        PSCENC =        59.93625244
  Ewald energy   TEWEN  =     34385.40656134
  -Hartree energ DENC   =    -41443.49920006
  -exchange      EXHF   =         0.00000000
  -V(xc)+E(xc)   XCENC  =       442.33760203
  PAW double counting   =    102089.15969714  -101805.59228044
  entropy T*S    EENTRO =        -0.00000000
  eigenvalues    EBANDS =     -2575.63443782
  atomic energy  EATOM  =      8420.94593319
  ---------------------------------------------------
  free energy    TOTEN  =      -426.93987217 eV

  energy without entropy =     -426.93987217  energy(sigma->0) =     -426.93987217


--------------------------------------------------------------------------------------------------------




--------------------------------------- Iteration      1(  10)  ---------------------------------------


    POTLOK:  cpu time    3.1195: real time    3.1426
    SETDIJ:  cpu time    0.0632: real time    0.0634
    TRIAL :  cpu time    0.8512: real time    0.8597
    CORREC:  cpu time    3.4818: real time    3.5096
    CHARGE:  cpu time    0.1156: real time    0.1168
    --------------------------------------------
      LOOP:  cpu time    7.6786: real time    7.7416

 eigenvalue-minimisations  :     0
 total energy-change (2. order) :-0.1557220E+00  (-0.6780912E-01)
 number of electron     216.0000000 magnetization 
 augmentation part       -0.4006402 magnetization 

 Free energy of the ion-electron system (eV)
  ---------------------------------------------------
  alpha Z        PSCENC =        59.93625244
  Ewald energy   TEWEN  =     34385.40656134
  -Hartree energ DENC   =    -41442.31416641
  -exchange      EXHF   =         0.00000000
  -V(xc)+E(xc)   XCENC  =       442.24360007
  PAW double counting   =    102694.33087342  -102410.68049305
  entropy T*S    EENTRO =        -0.00000000
  eigenvalues    EBANDS =     -2576.96415516
  atomic energy  EATOM  =      8420.94593319
  ---------------------------------------------------
  free energy    TOTEN  =      -427.09559415 eV

  energy without entropy =     -427.09559415  energy(sigma->0) =     -427.09559415


--------------------------------------------------------------------------------------------------------




--------------------------------------- Iteration      1(  11)  ---------------------------------------


    POTLOK:  cpu time    3.1426: real time    3.1672
    SETDIJ:  cpu time    0.0648: real time    0.0650
    TRIAL :  cpu time    0.8509: real time    0.8597
    CORREC:  cpu time    3.4724: real time    3.5006
    CHARGE:  cpu time    0.1175: real time    0.1187
    --------------------------------------------
      LOOP:  cpu time    7.7018: real time    7.7680

 eigenvalue-minimisations  :     0
 total energy-change (2. order) :-0.6754888E-01  (-0.2843946E-01)
 number of electron     216.0000000 magnetization 
 augmentation part       -0.4004818 magnetization 

 Free energy of the ion-electron system (eV)
  ---------------------------------------------------
  alpha Z        PSCENC =        59.93625244
  Ewald energy   TEWEN  =     34385.40656134
  -Hartree energ DENC   =    -41437.26075835
  -exchange      EXHF   =         0.00000000
  -V(xc)+E(xc)   XCENC  =       442.16520337
  PAW double counting   =    102385.10957393  -102101.45693584
  entropy T*S    EENTRO =        -0.00000000
  eigenvalues    EBANDS =     -2582.00897313
  atomic energy  EATOM  =      8420.94593319
  ---------------------------------------------------
  free energy    TOTEN  =      -427.16314303 eV

  energy without entropy =     -427.16314303  energy(sigma->0) =     -427.16314303


--------------------------------------------------------------------------------------------------------




--------------------------------------- Iteration      1(  12)  ---------------------------------------


    POTLOK:  cpu time    3.1245: real time    3.1483
    SETDIJ:  cpu time    0.0651: real time    0.0654
    TRIAL :  cpu time    0.8509: real time    0.8597
    CORREC:  cpu time    3.4708: real time    3.4991
    CHARGE:  cpu time    0.1165: real time    0.1177
    --------------------------------------------
      LOOP:  cpu time    7.6650: real time    7.7506

 eigenvalue-minimisations  :     0
 total energy-change (2. order) :-0.2832293E-01  (-0.9459604E-02)
 number of electron     216.0000000 magnetization 
 augmentation part       -0.4005607 magnetization 

 Free energy of the ion-electron system (eV)
  ---------------------------------------------------
  alpha Z        PSCENC =        59.93625244
  Ewald energy   TEWEN  =     34385.40656134
  -Hartree energ DENC   =    -41435.01491050
  -exchange      EXHF   =         0.00000000
  -V(xc)+E(xc)   XCENC  =       442.12031039
  PAW double counting   =    102068.32875481  -101784.69672325
  entropy T*S    EENTRO =        -0.00000000
  eigenvalues    EBANDS =     -2584.21764438
  atomic energy  EATOM  =      8420.94593319
  ---------------------------------------------------
  free energy    TOTEN  =      -427.19146596 eV

  energy without entropy =     -427.19146596  energy(sigma->0) =     -427.19146596


--------------------------------------------------------------------------------------------------------




--------------------------------------- Iteration      1(  13)  ---------------------------------------


    POTLOK:  cpu time    3.1146: real time    3.1398
    SETDIJ:  cpu time    0.0648: real time    0.0650
    TRIAL :  cpu time    0.8507: real time    0.8594
    CORREC:  cpu time    3.5349: real time    3.5632
    CHARGE:  cpu time    0.1172: real time    0.1184
    --------------------------------------------
      LOOP:  cpu time    7.7802: real time    7.8469

 eigenvalue-minimisations  :     0
 total energy-change (2. order) :-0.9444014E-02  (-0.2811911E-02)
 number of electron     216.0000000 magnetization 
 augmentation part       -0.4001257 magnetization 

 Free energy of the ion-electron system (eV)
  ---------------------------------------------------
  alpha Z        PSCENC =        59.93625244
  Ewald energy   TEWEN  =     34385.40656134
  -Hartree energ DENC   =    -41434.76313939
  -exchange      EXHF   =         0.00000000
  -V(xc)+E(xc)   XCENC  =       442.10598374
  PAW double counting   =    101939.85225498  -101656.23082109
  entropy T*S    EENTRO =        -0.00000000
  eigenvalues    EBANDS =     -2584.45393518
  atomic energy  EATOM  =      8420.94593319
  ---------------------------------------------------
  free energy    TOTEN  =      -427.20090997 eV

  energy without entropy =     -427.20090997  energy(sigma->0) =     -427.20090997


--------------------------------------------------------------------------------------------------------




--------------------------------------- Iteration      1(  14)  ---------------------------------------


    POTLOK:  cpu time    3.1381: real time    3.1620
    SETDIJ:  cpu time    0.0648: real time    0.0650
    TRIAL :  cpu time    0.8499: real time    0.8587
    CORREC:  cpu time    3.4957: real time    3.5260
    CHARGE:  cpu time    0.1150: real time    0.1164
    --------------------------------------------
      LOOP:  cpu time    7.7513: real time    7.8183

 eigenvalue-minimisations  :     0
 total energy-change (2. order) :-0.2812919E-02  (-0.9042456E-03)
 number of electron     216.0000000 magnetization 
 augmentation part       -0.3998812 magnetization 

 Free energy of the ion-electron system (eV)
  ---------------------------------------------------
  alpha Z        PSCENC =        59.93625244
  Ewald energy   TEWEN  =     34385.40656134
  -Hartree energ DENC   =    -41434.80374653
  -exchange      EXHF   =         0.00000000
  -V(xc)+E(xc)   XCENC  =       442.10506836
  PAW double counting   =    101939.25202074  -101655.63507158
  entropy T*S    EENTRO =        -0.00000000
  eigenvalues    EBANDS =     -2584.41074086
  atomic energy  EATOM  =      8420.94593319
  ---------------------------------------------------
  free energy    TOTEN  =      -427.20372289 eV

  energy without entropy =     -427.20372289  energy(sigma->0) =     -427.20372289


--------------------------------------------------------------------------------------------------------




--------------------------------------- Iteration      1(  15)  ---------------------------------------


    POTLOK:  cpu time    3.1359: real time    3.1643
    SETDIJ:  cpu time    0.0645: real time    0.0647
    TRIAL :  cpu time    0.8670: real time    0.8775
    CORREC:  cpu time    3.4791: real time    3.5110
    CHARGE:  cpu time    0.1157: real time    0.1170
    --------------------------------------------
      LOOP:  cpu time    7.6853: real time    7.7845

 eigenvalue-minimisations  :     0
 total energy-change (2. order) :-0.9062274E-03  (-0.4086209E-03)
 number of electron     216.0000000 magnetization 
 augmentation part       -0.3995161 magnetization 

 Free energy of the ion-electron system (eV)
  ---------------------------------------------------
  alpha Z        PSCENC =        59.93625244
  Ewald energy   TEWEN  =     34385.40656134
  -Hartree energ DENC   =    -41434.46560496
  -exchange      EXHF   =         0.00000000
  -V(xc)+E(xc)   XCENC  =       442.08882570
  PAW double counting   =    101946.72196435  -101663.10358762
  entropy T*S    EENTRO =        -0.00000000
  eigenvalues    EBANDS =     -2584.73497358
  atomic energy  EATOM  =      8420.94593319
  ---------------------------------------------------
  free energy    TOTEN  =      -427.20462912 eV

  energy without entropy =     -427.20462912  energy(sigma->0) =     -427.20462912


--------------------------------------------------------------------------------------------------------




--------------------------------------- Iteration      1(  16)  ---------------------------------------


    POTLOK:  cpu time    3.1090: real time    3.1372
    SETDIJ:  cpu time    0.0654: real time    0.0657
    TRIAL :  cpu time    0.8646: real time    0.8749
    CORREC:  cpu time    3.4592: real time    3.4944
    CHARGE:  cpu time    0.1165: real time    0.1180
    --------------------------------------------
      LOOP:  cpu time    7.6751: real time    7.7534

 eigenvalue-minimisations  :     0
 total energy-change (2. order) :-0.4099621E-03  (-0.1913459E-03)
 number of electron     216.0000000 magnetization 
 augmentation part       -0.3993454 magnetization 

 Free energy of the ion-electron system (eV)
  ---------------------------------------------------
  alpha Z        PSCENC =        59.93625244
  Ewald energy   TEWEN  =     34385.40656134
  -Hartree energ DENC   =    -41434.67793683
  -exchange      EXHF   =         0.00000000
  -V(xc)+E(xc)   XCENC  =       442.09668636
  PAW double counting   =    101910.86055522  -101627.24349278
  entropy T*S    EENTRO =        -0.00000000
  eigenvalues    EBANDS =     -2584.52959803
  atomic energy  EATOM  =      8420.94593319
  ---------------------------------------------------
  free energy    TOTEN  =      -427.20503908 eV

  energy without entropy =     -427.20503908  energy(sigma->0) =     -427.20503908


--------------------------------------------------------------------------------------------------------




--------------------------------------- Iteration      1(  17)  ---------------------------------------


    POTLOK:  cpu time    3.1032: real time    3.1278
    SETDIJ:  cpu time    0.0649: real time    0.0651
    TRIAL :  cpu time    0.8695: real time    0.8782
    CORREC:  cpu time    3.4698: real time    3.4970
    CHARGE:  cpu time    0.1159: real time    0.1171
    --------------------------------------------
      LOOP:  cpu time    7.6965: real time    7.7650

 eigenvalue-minimisations  :     0
 total energy-change (2. order) :-0.1919720E-03  (-0.8206019E-04)
 number of electron     216.0000000 magnetization 
 augmentation part       -0.3993873 magnetization 

 Free energy of the ion-electron system (eV)
  ---------------------------------------------------
  alpha Z        PSCENC =        59.93625244
  Ewald energy   TEWEN  =     34385.40656134
  -Hartree energ DENC   =    -41434.80401935
  -exchange      EXHF   =         0.00000000
  -V(xc)+E(xc)   XCENC  =       442.10024900
  PAW double counting   =    101869.93144195  -101586.31439688
  entropy T*S    EENTRO =        -0.00000000
  eigenvalues    EBANDS =     -2584.40725275
  atomic energy  EATOM  =      8420.94593319
  ---------------------------------------------------
  free energy    TOTEN  =      -427.20523106 eV

  energy without entropy =     -427.20523106  energy(sigma->0) =     -427.20523106


--------------------------------------------------------------------------------------------------------




--------------------------------------- Iteration      1(  18)  ---------------------------------------


    POTLOK:  cpu time    3.1121: real time    3.1360
    SETDIJ:  cpu time    0.0651: real time    0.0654
    TRIAL :  cpu time    0.8516: real time    0.8602
    CORREC:  cpu time    3.5111: real time    3.5414
    CHARGE:  cpu time    0.1150: real time    0.1162
    --------------------------------------------
      LOOP:  cpu time    7.7088: real time    7.7753

 eigenvalue-minimisations  :     0
 total energy-change (2. order) :-0.8205508E-04  (-0.2966641E-04)
 number of electron     216.0000000 magnetization 
 augmentation part       -0.3994938 magnetization 

 Free energy of the ion-electron system (eV)
  ---------------------------------------------------
  alpha Z        PSCENC =        59.93625244
  Ewald energy   TEWEN  =     34385.40656134
  -Hartree energ DENC   =    -41434.81440530
  -exchange      EXHF   =         0.00000000
  -V(xc)+E(xc)   XCENC  =       442.10045985
  PAW double counting   =    101859.90614439  -101576.28836398
  entropy T*S    EENTRO =        -0.00000000
  eigenvalues    EBANDS =     -2584.39789503
  atomic energy  EATOM  =      8420.94593319
  ---------------------------------------------------
  free energy    TOTEN  =      -427.20531311 eV

  energy without entropy =     -427.20531311  energy(sigma->0) =     -427.20531311


--------------------------------------------------------------------------------------------------------




--------------------------------------- Iteration      1(  19)  ---------------------------------------


    POTLOK:  cpu time    3.1120: real time    3.1351
    SETDIJ:  cpu time    0.0644: real time    0.0646
    TRIAL :  cpu time    0.8499: real time    0.8585
    CORREC:  cpu time    3.4901: real time    3.5174
    CHARGE:  cpu time    0.1147: real time    0.1159
    --------------------------------------------
      LOOP:  cpu time    7.7561: real time    7.8185

 eigenvalue-minimisations  :     0
 total energy-change (2. order) :-0.2938262E-04  (-0.1099892E-04)
 number of electron     216.0000000 magnetization 
 augmentation part       -0.3995760 magnetization 

 Free energy of the ion-electron system (eV)
  ---------------------------------------------------
  alpha Z        PSCENC =        59.93625244
  Ewald energy   TEWEN  =     34385.40656134
  -Hartree energ DENC   =    -41434.83954394
  -exchange      EXHF   =         0.00000000
  -V(xc)+E(xc)   XCENC  =       442.10148734
  PAW double counting   =    101870.03962198  -101586.42145958
  entropy T*S    EENTRO =        -0.00000000
  eigenvalues    EBANDS =     -2584.37419526
  atomic energy  EATOM  =      8420.94593319
  ---------------------------------------------------
  free energy    TOTEN  =      -427.20534249 eV

  energy without entropy =     -427.20534249  energy(sigma->0) =     -427.20534249


--------------------------------------------------------------------------------------------------------




--------------------------------------- Iteration      1(  20)  ---------------------------------------


    POTLOK:  cpu time    3.1114: real time    3.1345
    SETDIJ:  cpu time    0.0653: real time    0.0655
    TRIAL :  cpu time    0.8517: real time    0.8602
    CORREC:  cpu time    3.4670: real time    3.4944
    CHARGE:  cpu time    0.1163: real time    0.1176
    --------------------------------------------
      LOOP:  cpu time    7.7292: real time    7.7917

 eigenvalue-minimisations  :     0
 total energy-change (2. order) :-0.1078451E-04  (-0.4491265E-05)
 number of electron     216.0000000 magnetization 
 augmentation part       -0.3995797 magnetization 

 Free energy of the ion-electron system (eV)
  ---------------------------------------------------
  alpha Z        PSCENC =        59.93625244
  Ewald energy   TEWEN  =     34385.40656134
  -Hartree energ DENC   =    -41434.82083520
  -exchange      EXHF   =         0.00000000
  -V(xc)+E(xc)   XCENC  =       442.10061791
  PAW double counting   =    101879.11943995  -101595.50098339
  entropy T*S    EENTRO =        -0.00000000
  eigenvalues    EBANDS =     -2584.39233951
  atomic energy  EATOM  =      8420.94593319
  ---------------------------------------------------
  free energy    TOTEN  =      -427.20535328 eV

  energy without entropy =     -427.20535328  energy(sigma->0) =     -427.20535328


--------------------------------------------------------------------------------------------------------




--------------------------------------- Iteration      1(  21)  ---------------------------------------


    POTLOK:  cpu time    3.1224: real time    3.1488
    SETDIJ:  cpu time    0.0648: real time    0.0650
    TRIAL :  cpu time    0.8520: real time    0.8615
    CORREC:  cpu time    3.4704: real time    3.4988
    CHARGE:  cpu time    0.1157: real time    0.1169
    --------------------------------------------
      LOOP:  cpu time    7.6739: real time    7.7757

 eigenvalue-minimisations  :     0
 total energy-change (2. order) :-0.4357222E-05  (-0.2061182E-05)
 number of electron     216.0000000 magnetization 
 augmentation part       -0.3995846 magnetization 

 Free energy of the ion-electron system (eV)
  ---------------------------------------------------
  alpha Z        PSCENC =        59.93625244
  Ewald energy   TEWEN  =     34385.40656134
  -Hartree energ DENC   =    -41434.83382977
  -exchange      EXHF   =         0.00000000
  -V(xc)+E(xc)   XCENC  =       442.10136748
  PAW double counting   =    101881.46533786  -101597.84715438
  entropy T*S    EENTRO =        -0.00000000
  eigenvalues    EBANDS =     -2584.37982581
  atomic energy  EATOM  =      8420.94593319
  ---------------------------------------------------
  free energy    TOTEN  =      -427.20535763 eV

  energy without entropy =     -427.20535763  energy(sigma->0) =     -427.20535763


--------------------------------------------------------------------------------------------------------




--------------------------------------- Iteration      1(  22)  ---------------------------------------


    POTLOK:  cpu time    3.1208: real time    3.1451
    SETDIJ:  cpu time    0.0630: real time    0.0632
    TRIAL :  cpu time    0.8505: real time    0.8588
    CORREC:  cpu time    3.4938: real time    3.5242
    CHARGE:  cpu time    0.1164: real time    0.1176
    --------------------------------------------
      LOOP:  cpu time    7.7038: real time    7.7689

 eigenvalue-minimisations  :     0
 total energy-change (2. order) :-0.2037676E-05  (-0.8455451E-06)
 number of electron     216.0000000 magnetization 
 augmentation part       -0.3995713 magnetization 

 Free energy of the ion-electron system (eV)
  ---------------------------------------------------
  alpha Z        PSCENC =        59.93625244
  Ewald energy   TEWEN  =     34385.40656134
  -Hartree energ DENC   =    -41434.81267450
  -exchange      EXHF   =         0.00000000
  -V(xc)+E(xc)   XCENC  =       442.10043685
  PAW double counting   =    101880.45226800  -101596.83406196
  entropy T*S    EENTRO =        -0.00000000
  eigenvalues    EBANDS =     -2584.40007505
  atomic energy  EATOM  =      8420.94593319
  ---------------------------------------------------
  free energy    TOTEN  =      -427.20535967 eV

  energy without entropy =     -427.20535967  energy(sigma->0) =     -427.20535967


--------------------------------------------------------------------------------------------------------




--------------------------------------- Iteration      1(  23)  ---------------------------------------


    POTLOK:  cpu time    3.1311: real time    3.1571
    SETDIJ:  cpu time    0.0653: real time    0.0655
    TRIAL :  cpu time    0.8489: real time    0.8577
    CORREC:  cpu time    3.4818: real time    3.5099
    CHARGE:  cpu time    0.1172: real time    0.1184
    --------------------------------------------
      LOOP:  cpu time    7.7327: real time    7.7997

 eigenvalue-minimisations  :     0
 total energy-change (2. order) :-0.8504867E-06  (-0.3254471E-06)
 number of electron     216.0000000 magnetization 
 augmentation part       -0.3995667 magnetization 

 Free energy of the ion-electron system (eV)
  ---------------------------------------------------
  alpha Z        PSCENC =        59.93625244
  Ewald energy   TEWEN  =     34385.40656134
  -Hartree energ DENC   =    -41434.81416913
  -exchange      EXHF   =         0.00000000
  -V(xc)+E(xc)   XCENC  =       442.10066439
  PAW double counting   =    101879.29480508  -101595.67670215
  entropy T*S    EENTRO =        -0.00000000
  eigenvalues    EBANDS =     -2584.39870569
  atomic energy  EATOM  =      8420.94593319
  ---------------------------------------------------
  free energy    TOTEN  =      -427.20536052 eV

  energy without entropy =     -427.20536052  energy(sigma->0) =     -427.20536052


--------------------------------------------------------------------------------------------------------




--------------------------------------- Iteration      1(  24)  ---------------------------------------


    POTLOK:  cpu time    3.1402: real time    3.1641
    SETDIJ:  cpu time    0.0637: real time    0.0639
    TRIAL :  cpu time    0.8545: real time    0.8635
    CORREC:  cpu time    3.4835: real time    3.5111
    CHARGE:  cpu time    0.1161: real time    0.1173
    --------------------------------------------
      LOOP:  cpu time    7.7093: real time    7.7778

 eigenvalue-minimisations  :     0
 total energy-change (2. order) :-0.3342720E-06  (-0.1227577E-06)
 number of electron     216.0000000 magnetization 
 augmentation part       -0.3995673 magnetization 

 Free energy of the ion-electron system (eV)
  ---------------------------------------------------
  alpha Z        PSCENC =        59.93625244
  Ewald energy   TEWEN  =     34385.40656134
  -Hartree energ DENC   =    -41434.81075273
  -exchange      EXHF   =         0.00000000
  -V(xc)+E(xc)   XCENC  =       442.10062348
  PAW double counting   =    101878.85462727  -101595.23651554
  entropy T*S    EENTRO =        -0.00000000
  eigenvalues    EBANDS =     -2584.40209031
  atomic energy  EATOM  =      8420.94593319
  ---------------------------------------------------
  free energy    TOTEN  =      -427.20536086 eV

  energy without entropy =     -427.20536086  energy(sigma->0) =     -427.20536086


--------------------------------------------------------------------------------------------------------




--------------------------------------- Iteration      1(  25)  ---------------------------------------


    POTLOK:  cpu time    3.1096: real time    3.1356
    SETDIJ:  cpu time    0.0634: real time    0.0636
    TRIAL :  cpu time    0.8518: real time    0.8608
    CORREC:  cpu time    3.4718: real time    3.4997
    CHARGE:  cpu time    0.1167: real time    0.1179
    --------------------------------------------
      LOOP:  cpu time    7.6983: real time    7.7707

 eigenvalue-minimisations  :     0
 total energy-change (2. order) :-0.1260778E-06  (-0.5977209E-07)
 number of electron     216.0000000 magnetization 
 augmentation part       -0.3995662 magnetization 

 Free energy of the ion-electron system (eV)
  ---------------------------------------------------
  alpha Z        PSCENC =        59.93625244
  Ewald energy   TEWEN  =     34385.40656134
  -Hartree energ DENC   =    -41434.80845738
  -exchange      EXHF   =         0.00000000
  -V(xc)+E(xc)   XCENC  =       442.10053277
  PAW double counting   =    101878.77927546  -101595.16112755
  entropy T*S    EENTRO =        -0.00000000
  eigenvalues    EBANDS =     -2584.40433125
  atomic energy  EATOM  =      8420.94593319
  ---------------------------------------------------
  free energy    TOTEN  =      -427.20536098 eV

  energy without entropy =     -427.20536098  energy(sigma->0) =     -427.20536098


--------------------------------------------------------------------------------------------------------




--------------------------------------- Iteration      1(  26)  ---------------------------------------


    POTLOK:  cpu time    3.1017: real time    3.1257
    SETDIJ:  cpu time    0.0653: real time    0.0655
    TRIAL :  cpu time    0.8587: real time    0.8762
    CORREC:  cpu time    3.4645: real time    3.4935
    EDDIAG:  cpu time    0.3238: real time    0.3276
    CHARGE:  cpu time    0.1156: real time    0.1167
    --------------------------------------------
      LOOP:  cpu time    8.0075: real time    8.0857

 eigenvalue-minimisations  :     0
 total energy-change (2. order) :-0.6175833E-07  (-0.2198928E-07)
 number of electron     216.0000000 magnetization 
 augmentation part       -0.3995661 magnetization 

 Free energy of the ion-electron system (eV)
  ---------------------------------------------------
  alpha Z        PSCENC =        59.93625244
  Ewald energy   TEWEN  =     34385.40656134
  -Hartree energ DENC   =    -41434.81084590
  -exchange      EXHF   =         0.00000000
  -V(xc)+E(xc)   XCENC  =       442.10063684
  PAW double counting   =    101878.80076932  -101595.18262430
  entropy T*S    EENTRO =        -0.00000000
  eigenvalues    EBANDS =     -2584.40204399
  atomic energy  EATOM  =      8420.94593319
  ---------------------------------------------------
  free energy    TOTEN  =      -427.20536104 eV

  energy without entropy =     -427.20536104  energy(sigma->0) =     -427.20536104


--------------------------------------------------------------------------------------------------------


  average scaling for gradient   0.8875


 average (electrostatic) potential at core
  the test charge radii are     0.5770  0.5955
  (the norm of the test charge is              1.0000)
       1 -85.6791       2 -85.6740       3 -85.6854       4 -85.6919       5 -85.6708
       6 -85.6674       7 -85.6784       8 -85.6617       9 -85.6695      10 -85.6717
      11 -85.6702      12 -85.6746      13 -85.6694      14 -85.6683      15 -85.6678
      16 -85.6675      17 -85.6735      18 -85.6754      19 -85.6783      20 -85.6735
      21 -85.6625      22 -85.6653      23 -85.6893      24 -85.6882      25 -85.6694
      26 -85.6715      27 -85.6699      28 -85.6818      29 -85.6670      30 -85.6693
      31 -85.6899      32 -85.6814      33 -85.6757      34 -85.6711      35 -85.6693
      36 -85.6722      37 -85.6743      38 -85.6772      39 -85.6773      40 -85.6753
      41 -85.6760      42 -85.6792      43 -85.6729      44 -85.6790      45 -85.6687
      46 -85.6675      47 -85.6737      48 -85.6709      49 -85.6761      50 -85.6743
      51 -89.5819      52-120.0993      53-120.1026
 
 
 
 E-fermi :  -4.0287     XC(G=0):  -2.6157     alpha+bet : -2.1113

 Fermi energy:        -4.0286571492

 k-point     1 :       0.0000    0.0000    0.0000
  band No.  band energies     occupation 
      1     -27.3129      2.00000
      2     -26.3273      2.00000
      3     -22.1060      2.00000
      4     -21.1793      2.00000
      5     -21.1734      2.00000
      6     -21.1674      2.00000
      7     -21.1671      2.00000
      8     -21.1644      2.00000
      9     -21.1623      2.00000
     10     -19.3380      2.00000
     11     -19.3365      2.00000
     12     -19.3317      2.00000
     13     -19.3310      2.00000
     14     -19.3296      2.00000
     15     -19.3294      2.00000
     16     -18.4419      2.00000
     17     -18.4406      2.00000
     18     -18.4388      2.00000
     19     -18.4371      2.00000
     20     -18.4363      2.00000
     21     -18.4359      2.00000
     22     -16.2823      2.00000
     23     -16.2812      2.00000
     24     -16.2786      2.00000
     25     -16.2781      2.00000
     26     -16.2746      2.00000
     27     -16.2742      2.00000
     28     -15.3107      2.00000
     29     -15.3099      2.00000
     30     -15.3067      2.00000
     31     -15.3062      2.00000
     32     -15.3052      2.00000
     33     -15.3048      2.00000
     34     -13.9610      2.00000
     35     -13.9606      2.00000
     36     -13.9600      2.00000
     37     -13.9585      2.00000
     38     -13.9584      2.00000
     39     -13.9580      2.00000
     40     -12.1785      2.00000
     41     -11.5888      2.00000
     42     -11.5884      2.00000
     43     -11.5860      2.00000
     44     -11.5858      2.00000
     45     -11.5856      2.00000
     46     -11.5853      2.00000
     47     -11.5026      2.00000
     48     -11.5019      2.00000
     49     -11.5001      2.00000
     50     -11.4997      2.00000
     51     -11.4970      2.00000
     52     -11.4968      2.00000
     53     -11.0511      2.00000
     54     -11.0382      2.00000
     55     -10.9719      2.00000
     56     -10.2579      2.00000
     57     -10.1331      2.00000
     58     -10.1330      2.00000
     59     -10.1322      2.00000
     60     -10.1318      2.00000
     61     -10.1308      2.00000
     62     -10.1305      2.00000
     63      -9.1736      2.00000
     64      -9.1677      2.00000
     65      -9.1670      2.00000
     66      -9.1631      2.00000
     67      -9.1612      2.00000
     68      -9.1364      2.00000
     69      -8.8765      2.00000
     70      -8.8732      2.00000
     71      -8.8726      2.00000
     72      -8.8717      2.00000
     73      -8.8711      2.00000
     74      -8.8696      2.00000
     75      -8.8102      2.00000
     76      -8.8097      2.00000
     77      -8.8094      2.00000
     78      -8.8072      2.00000
     79      -8.8066      2.00000
     80      -8.8055      2.00000
     81      -7.4976      2.00000
     82      -7.4425      2.00000
     83      -7.2276      2.00000
     84      -7.2273      2.00000
     85      -7.2266      2.00000
     86      -7.2247      2.00000
     87      -7.2223      2.00000
     88      -7.2222      2.00000
     89      -7.0452      2.00000
     90      -7.0413      2.00000
     91      -7.0332      2.00000
     92      -7.0321      2.00000
     93      -7.0284      2.00000
     94      -6.9722      2.00000
     95      -6.1473      2.00000
     96      -6.1444      2.00000
     97      -6.1397      2.00000
     98      -6.1358      2.00000
     99      -6.1326      2.00000
    100      -6.1147      2.00000
    101      -5.7512      2.00000
    102      -5.7489      2.00000
    103      -4.1632      2.00000
    104      -4.1592      2.00000
    105      -4.1557      2.00000
    106      -4.1536      2.00000
    107      -4.1485      2.00000
    108      -4.1478      2.00000
    109      -1.3717      0.00000
    110      -1.3693      0.00000
    111      -1.3594      0.00000
    112      -1.3575      0.00000
    113      -1.3554      0.00000
    114      -1.3536      0.00000
    115       0.0955      0.00000
    116       0.4806      0.00000
    117       0.4865      0.00000
    118       0.4914      0.00000
    119       0.4989      0.00000
    120       0.5004      0.00000
    121       0.5021      0.00000
    122       0.7867      0.00000
    123       1.0793      0.00000
    124       1.2506      0.00000
    125       1.3438      0.00000
    126       1.4558      0.00000
    127       1.5145      0.00000
    128       1.5174      0.00000
    129       1.5776      0.00000
    130       1.6734      0.00000
    131       1.6986      0.00000
    132       2.0796      0.00000
    133       2.2435      0.00000
    134       2.2471      0.00000
    135       2.2517      0.00000
    136       2.2725      0.00000


--------------------------------------------------------------------------------------------------------


 soft charge-density along one line, spin component           1
         0         1         2         3         4         5         6         7         8         9
 total charge-density along one line
 
 pseudopotential strength for first ion, spin component:           1
 12.704  21.378  -0.000   0.000   0.000  -0.000   0.000   0.000
 21.378  35.972  -0.000   0.000   0.000  -0.000   0.000   0.000
 -0.000  -0.000  -3.215  -0.000   0.000  -5.762  -0.000   0.000
  0.000   0.000  -0.000  -3.219  -0.000  -0.000  -5.769  -0.000
  0.000   0.000   0.000  -0.000  -3.215   0.000  -0.000  -5.762
 -0.000  -0.000  -5.762  -0.000   0.000 -10.304  -0.000   0.000
  0.000   0.000  -0.000  -5.769  -0.000  -0.000 -10.317  -0.000
  0.000   0.000   0.000  -0.000  -5.762   0.000  -0.000 -10.304
 total augmentation occupancy for first ion, spin component:           1
  7.414  -2.550  -0.000  -0.002   0.000   0.000   0.001  -0.000
 -2.550   0.916   0.000   0.001  -0.000  -0.000  -0.000   0.000
 -0.000   0.000   6.889  -0.007   0.000  -2.287   0.003  -0.000
 -0.002   0.001  -0.007   2.992  -0.000   0.003  -0.762   0.000
  0.000  -0.000   0.000  -0.000   6.888  -0.000   0.000  -2.287
  0.000  -0.000  -2.287   0.003  -0.000   0.774  -0.001   0.000
  0.001  -0.000   0.003  -0.762   0.000  -0.001   0.202   0.000
 -0.000   0.000  -0.000   0.000  -2.287   0.000   0.000   0.774


------------------------ aborting loop because EDIFF is reached ----------------------------------------


    FORLOC:  cpu time    0.0506: real time    0.0511
    FORNL :  cpu time    0.6758: real time    0.6794
    FORCOR:  cpu time    3.1860: real time    3.2111
    OFIELD:  cpu time    0.0011: real time    0.0011

 VOLUME and BASIS-vectors are now :
 -----------------------------------------------------------------------------
  energy-cutoff  :     1000.00
  volume of cell :     2631.08
      direct lattice vectors                 reciprocal lattice vectors
    12.325000000  0.000000000  0.000000000     0.081135903  0.046843835  0.000000000
    -6.162500000 10.673763102  0.000000000     0.000000000  0.093687670  0.000000000
     0.000000000  0.000000000 20.000000000     0.000000000  0.000000000  0.050000000

  length of vectors
    12.325000000 12.325000000 20.000000000     0.093687670  0.093687670  0.050000000


 FORCES acting on ions:
    Electron-Ion                     Ewald-Force                    Non-Local-Force
 -----------------------------------------------------------------------------------------------
   0.112E+02 0.983E+01 0.227E+02   -.112E+02 -.983E+01 -.227E+02   0.144E-01 -.591E-02 0.131E-01
   0.184E+02 0.914E+01 0.305E+02   -.185E+02 -.913E+01 -.305E+02   0.198E-01 -.137E-01 -.511E-02
   0.915E+01 0.234E+02 0.384E+02   -.914E+01 -.234E+02 -.385E+02   -.194E-02 0.471E-01 0.387E-01
   0.146E+02 0.214E+02 0.633E+02   -.147E+02 -.215E+02 -.633E+02   0.565E-01 0.235E-01 0.874E-01
   0.122E+02 0.289E+01 0.228E+02   -.122E+02 -.288E+01 -.228E+02   0.363E-02 -.172E-01 -.406E-02
   0.128E+02 -.218E+01 0.234E+02   -.128E+02 0.219E+01 -.233E+02   -.209E-01 -.406E-02 -.130E-01
   0.250E+02 0.102E+02 0.539E+02   -.250E+02 -.101E+02 -.539E+02   0.546E-01 -.650E-01 -.953E-02
   0.247E+02 -.834E+01 0.575E+02   -.247E+02 0.838E+01 -.574E+02   0.487E-02 -.314E-01 -.108E+00
   -.101E+02 0.216E+02 0.396E+02   0.102E+02 -.216E+02 -.396E+02   -.218E-01 -.869E-02 -.359E-01
   -.186E+02 0.159E+02 0.614E+02   0.187E+02 -.160E+02 -.614E+02   -.733E-01 0.419E-01 -.844E-01
   0.299E+01 -.264E+01 0.179E+02   -.298E+01 0.263E+01 -.179E+02   -.542E-02 0.406E-02 -.545E-02
   0.238E+01 -.193E+01 0.165E+02   -.237E+01 0.193E+01 -.165E+02   -.157E-01 0.681E-02 0.160E-02
   0.948E+01 -.227E+02 0.661E+02   -.957E+01 0.228E+02 -.660E+02   0.928E-01 -.242E-01 -.957E-01
   0.435E+01 -.236E+02 0.392E+02   -.438E+01 0.236E+02 -.392E+02   0.274E-01 0.310E-02 -.368E-01
   -.109E+02 0.686E+01 0.223E+02   0.109E+02 -.685E+01 -.223E+02   0.156E-01 -.847E-02 -.603E-02
   -.162E+02 0.457E+01 0.265E+02   0.162E+02 -.457E+01 -.265E+02   -.355E-03 0.102E-01 -.231E-01
   -.162E+01 -.666E+00 0.158E+02   0.163E+01 0.663E+00 -.158E+02   -.559E-02 0.425E-03 0.129E-02
   0.899E+00 0.599E+01 0.170E+02   -.893E+00 -.599E+01 -.170E+02   -.891E-02 0.402E-02 0.872E-02
   -.335E+01 -.193E+02 0.290E+02   0.332E+01 0.194E+02 -.290E+02   0.287E-01 -.659E-02 0.114E-01
   -.142E+01 -.929E+01 0.191E+02   0.141E+01 0.930E+01 -.191E+02   0.581E-02 -.574E-02 -.143E-02
   0.192E+02 -.835E+01 0.332E+02   -.192E+02 0.835E+01 -.332E+02   -.831E-02 -.431E-02 -.472E-01
   0.113E+02 -.979E+01 0.253E+02   -.113E+02 0.978E+01 -.252E+02   -.139E-01 0.176E-01 -.156E-01
   -.469E+01 0.106E+02 0.820E+02   0.477E+01 -.106E+02 -.821E+02   -.719E-01 0.567E-01 0.624E-01
   -.830E+01 -.168E+02 0.772E+02   0.825E+01 0.169E+02 -.773E+02   0.489E-01 -.699E-01 0.649E-01
   0.522E+01 -.231E+01 0.181E+02   -.520E+01 0.230E+01 -.181E+02   -.106E-01 0.212E-02 -.957E-02
   0.962E+00 0.468E+01 0.183E+02   -.954E+00 -.468E+01 -.183E+02   -.133E-01 0.638E-02 -.102E-02
   -.249E+02 0.287E+01 0.442E+02   0.249E+02 -.291E+01 -.442E+02   -.207E-02 0.309E-01 -.408E-01
   -.227E+02 -.972E+01 0.394E+02   0.227E+02 0.969E+01 -.394E+02   -.398E-01 0.335E-01 0.175E-01
   0.690E+01 -.141E+02 0.266E+02   -.691E+01 0.141E+02 -.266E+02   0.107E-01 0.962E-02 -.198E-01
   0.643E+00 -.520E+01 0.194E+02   -.654E+00 0.519E+01 -.194E+02   0.214E-02 0.975E-02 -.915E-02
   -.185E+02 -.200E+02 0.496E+02   0.186E+02 0.200E+02 -.497E+02   -.470E-01 -.300E-01 0.630E-01
   -.104E+02 -.190E+02 0.313E+02   0.104E+02 0.190E+02 -.313E+02   -.652E-03 -.279E-01 0.247E-01
   0.608E+00 0.250E+01 0.164E+02   -.614E+00 -.250E+01 -.164E+02   0.121E-01 -.872E-02 0.373E-02
   0.174E+01 0.253E+01 0.179E+02   -.174E+01 -.252E+01 -.179E+02   0.679E-03 -.380E-02 -.591E-02
   -.760E+01 0.939E+00 0.199E+02   0.759E+01 -.947E+00 -.199E+02   0.108E-01 0.223E-02 -.208E-02
   -.652E+01 -.260E+01 0.192E+02   0.652E+01 0.260E+01 -.192E+02   -.113E-01 0.881E-02 -.267E-02
   -.133E+02 -.695E+01 0.234E+02   0.133E+02 0.694E+01 -.234E+02   -.159E-01 0.445E-02 0.198E-02
   -.765E+01 -.621E+01 0.189E+02   0.766E+01 0.621E+01 -.189E+02   -.112E-01 0.333E-02 0.104E-01
   -.719E+01 -.941E+01 0.205E+02   0.720E+01 0.942E+01 -.205E+02   -.115E-01 -.788E-02 0.802E-02
   -.106E+01 -.223E+01 0.170E+02   0.105E+01 0.223E+01 -.170E+02   0.223E-02 -.225E-02 0.827E-02
   0.270E+01 0.645E+01 0.179E+02   -.270E+01 -.646E+01 -.179E+02   -.424E-02 0.977E-02 0.806E-02
   0.902E+01 0.141E+02 0.244E+02   -.903E+01 -.141E+02 -.245E+02   0.115E-01 0.124E-01 0.165E-01
   0.719E+00 0.115E+02 0.203E+02   -.708E+00 -.116E+02 -.203E+02   -.860E-02 0.865E-02 -.712E-03
   0.135E+00 0.218E+02 0.324E+02   -.103E+00 -.218E+02 -.324E+02   -.363E-01 0.122E-01 0.135E-01
   -.219E+01 0.436E+01 0.194E+02   0.220E+01 -.436E+01 -.194E+02   0.113E-02 -.816E-02 -.658E-02
   -.929E+01 0.118E+02 0.252E+02   0.929E+01 -.118E+02 -.252E+02   -.889E-02 -.252E-02 -.175E-01
   -.157E+01 -.441E+01 0.177E+02   0.156E+01 0.441E+01 -.177E+02   0.149E-01 -.206E-02 0.102E-02
   -.410E+01 0.167E+01 0.169E+02   0.408E+01 -.167E+01 -.169E+02   0.851E-02 -.859E-03 -.816E-02
   0.319E+00 -.274E+01 0.166E+02   -.321E+00 0.274E+01 -.166E+02   0.824E-02 -.372E-02 0.577E-02
   0.432E+01 0.317E+01 0.168E+02   -.433E+01 -.317E+01 -.168E+02   0.578E-02 0.271E-02 0.352E-02
   0.166E+00 -.112E+00 -.376E+03   -.153E+00 0.103E+00 0.376E+03   -.133E-01 0.721E-02 -.396E-01
   -.229E+03 0.156E+03 -.576E+03   0.279E+03 -.190E+03 0.579E+03   -.510E+02 0.347E+02 -.323E+01
   0.229E+03 -.156E+03 -.556E+03   -.279E+03 0.190E+03 0.553E+03   0.510E+02 -.347E+02 0.326E+01
 -----------------------------------------------------------------------------------------------
   0.370E-01 -.368E-02 0.143E+00   0.568E-13 0.568E-13 0.341E-12   -.371E-01 0.385E-02 -.144E+00
 
 
 POSITION                                       TOTAL-FORCE (eV/Angst)
 -----------------------------------------------------------------------------------
     11.98348      0.00342      0.01417         0.001772     -0.000166     -0.000175
     -0.34154      1.42665      0.01100         0.001559      0.002355      0.001110
      2.12355      0.00315      0.01249         0.002172     -0.005536      0.004893
      2.12326      1.42653      0.00641        -0.001863      0.004659      0.001517
     10.75099      2.13819      0.01213         0.000515     -0.004050      0.002360
     -1.57382      3.56123      0.01110        -0.004895      0.006983      0.001071
      0.89078      2.13854      0.00548        -0.003383      0.003871     -0.001865
      0.89099      3.56147      0.00181        -0.005945      0.007937     -0.014467
      4.58864      0.00346      0.01135         0.006938      0.005640     -0.001185
      4.58894      1.42623      0.00646        -0.000065     -0.000451     -0.018646
      9.51854      4.27281      0.01369         0.007603     -0.007719      0.000373
     -2.80632      5.69591      0.01434        -0.008861      0.004987      0.001009
      2.12300      4.27302      0.00000        -0.004166      0.007881     -0.024410
      2.12335      5.69594      0.00581        -0.003877     -0.011520      0.000077
      7.05344      0.00333      0.01399         0.005601     -0.002428      0.002158
      7.05353      1.42635      0.01368        -0.005223      0.005127      0.000238
      8.28610      6.40752      0.01601         0.003805     -0.002492     -0.000426
     -4.03885      7.83070      0.01636        -0.003051      0.003249      0.000024
      3.35586      6.40753      0.01007         0.002640      0.000626      0.002650
      3.35599      7.83072      0.01320        -0.002870     -0.000377      0.000306
     -0.34146      4.27290      0.00723         0.011971     -0.008338     -0.000017
     -0.34138      5.69591      0.00946        -0.006836      0.003171      0.003355
      3.35624      2.13791      0.00222         0.006578     -0.002722     -0.027674
      3.35573      3.56155      0.00139        -0.003508      0.003270     -0.017215
     -1.57395      6.40758      0.01311         0.010366     -0.003625     -0.000585
     -1.57385      7.83068      0.01438        -0.004885      0.004220      0.000380
      5.82093      2.13784      0.01033        -0.000635     -0.008009     -0.003646
      5.82114      3.56097      0.01156        -0.001380     -0.000248      0.004024
      0.89092      6.40755      0.00907         0.003795     -0.000384      0.002699
      0.89106      7.83068      0.01235        -0.008985     -0.000257      0.000540
      4.58871      4.27293      0.00850         0.000821     -0.005520      0.004950
      4.58852      5.69606      0.01149         0.000815      0.008285      0.001964
      9.51845      0.00337      0.01490         0.005992     -0.005961      0.000364
      9.51855      1.42644      0.01438        -0.004414      0.009492     -0.000270
      8.28593      2.13803      0.01453         0.003308     -0.005756      0.001303
      8.28613      3.56115      0.01464        -0.004632      0.001682      0.000536
      7.05356      4.27269      0.01457         0.003005     -0.000591      0.001379
      7.05362      5.69588      0.01553        -0.002735      0.000620     -0.000046
      5.82112      6.40755      0.01489        -0.000813      0.001099      0.000089
      5.82102      7.83073      0.01579         0.000217      0.002157     -0.000296
      7.05363      8.54227      0.01631        -0.002074     -0.001221      0.001163
     -5.27149      9.96549      0.01495        -0.001847     -0.002498     -0.000978
     -2.80638      8.54234      0.01558         0.002507     -0.001017     -0.000035
     -2.80627      9.96553      0.01362        -0.003247      0.000482      0.002262
     -0.34149      8.54239      0.01378         0.006324     -0.001367      0.000734
     -0.34138      9.96550      0.01354        -0.007053      0.003036      0.002315
      2.12343      8.54232      0.01336         0.006605     -0.001267      0.000928
      2.12354      9.96544      0.01469        -0.008101      0.004059     -0.001913
      4.58846      8.54235      0.01505         0.005741     -0.004607      0.001108
      4.58853      9.96550      0.01517        -0.003097      0.003875      0.000731
      3.04930      2.68154      3.14980         0.000347     -0.001943     -0.008639
      4.02070      2.02068      3.21422        -0.544848      0.378952     -0.005645
      2.07767      3.34267      3.09035         0.552294     -0.387646      0.079522
 -----------------------------------------------------------------------------------
    total drift:                               -0.000092      0.000170     -0.001260


--------------------------------------------------------------------------------------------------------



  FREE ENERGIE OF THE ION-ELECTRON SYSTEM (eV)
  ---------------------------------------------------
  free  energy   TOTEN  =      -427.20536104 eV

  energy  without entropy=     -427.20536104  energy(sigma->0) =     -427.20536104
 


--------------------------------------------------------------------------------------------------------


    POTLOK:  cpu time    3.1937: real time    3.2184


--------------------------------------------------------------------------------------------------------


 writing wavefunctions
     LOOP+:  cpu time  207.1739: real time  209.4520
    4ORBIT:  cpu time    0.0000: real time    0.0000

 total amount of memory used by VASP MPI-rank0    85439. kBytes
=======================================================================

   base      :      30000. kBytes
   nonl-proj :       6586. kBytes
   fftplans  :      14299. kBytes
   grid      :      23511. kBytes
   one-center:          6. kBytes
   wavefun   :      11037. kBytes
 
  
  
 General timing and accounting informations for this job:
 ========================================================
  
                  Total CPU time used (sec):      242.905
                            User time (sec):      224.904
                          System time (sec):       18.001
                         Elapsed time (sec):      246.806
  
                   Maximum memory used (kb):      677212.
                   Average memory used (kb):          N/A
  
                          Minor page faults:       389151
                          Major page faults:          107
                 Voluntary context switches:         3467
