 vasp.6.2.1 16May21 (build Nov 06 2021 14:46:37) complex                        
  
 executed on             LinuxIFC date 2025.04.16  19:02:03
 running on  112 total cores
 distrk:  each k-point on  112 cores,    1 groups
 distr:  one band on NCORE=  28 cores,    4 groups


--------------------------------------------------------------------------------------------------------


 INCAR:
   ALGO = Conjugate
   NPAR = 4
   ISMEAR = 0
   SIGMA = 0.01
   PREC = Accurate
   EDIFF = 1E-7
   ENCUT = 1000
   ISIF = 0
   GGA = MK
   LUSE_VDW = .TRUE.
   PARAM1 = 0.1234
   PARAM2 = 0.711357
   ZAB_VDW = -1.8867
   AGGAC = 0.0000
   LASPH = .TRUE.

 POTCAR:    PAW_PBE C_h 06Feb2004                 
 POTCAR:    PAW_PBE O_h 06Feb2004                 
 -----------------------------------------------------------------------------
|                                                                             |
|           W    W    AA    RRRRR   N    N  II  N    N   GGGG   !!!           |
|           W    W   A  A   R    R  NN   N  II  NN   N  G    G  !!!           |
|           W    W  A    A  R    R  N N  N  II  N N  N  G       !!!           |
|           W WW W  AAAAAA  RRRRR   N  N N  II  N  N N  G  GGG   !            |
|           WW  WW  A    A  R   R   N   NN  II  N   NN  G    G                |
|           W    W  A    A  R    R  N    N  II  N    N   GGGG   !!!           |
|                                                                             |
|     For optimal performance we recommend to set                             |
|       NCORE = 2 up to number-of-cores-per-socket                            |
|     NCORE specifies how many cores store one orbital (NPAR=cpu/NCORE).      |
|     This setting can greatly improve the performance of VASP for DFT.       |
|     The default, NCORE=1 might be grossly inefficient on modern             |
|     multi-core architectures or massively parallel machines. Do your        |
|     own testing! More info at https://www.vasp.at/wiki/index.php/NCORE      |
|     Unfortunately you need to use the default for GW and RPA                |
|     calculations (for HF NCORE is supported but not extensively tested      |
|     yet).                                                                   |
|                                                                             |
 -----------------------------------------------------------------------------

 -----------------------------------------------------------------------------
|                                                                             |
|               ----> ADVICE to this user running VASP <----                  |
|                                                                             |
|     You have switched on vdW-DFT.                                           |
|     This routine was written and supplied by Jiri Klimes. We recommend      |
|     that you carefully read and cite the following publications:            |
|       J. Klimes, D.R. Bowler, A. Michelides                                 |
|          J. Phys.: Cond Matt. 22 022201 (2010)                              |
|       J. Klimes, D.R. Bowler, A. Michelides                                 |
|          Phys. Rev. B. 83, 195131 (2011)                                    |
|     and references therein.                                                 |
|                                                                             |
 -----------------------------------------------------------------------------

 POTCAR:    PAW_PBE C_h 06Feb2004                 
   VRHFIN =C: s2p2                                                                                  
   LEXCH  = PE                                                                                      
   EATOM  =   147.1560 eV,   10.8157 Ry                                                             
                                                                                                    
   TITEL  = PAW_PBE C_h 06Feb2004                                                                   
   LULTRA =        F    use ultrasoft PP ?                                                          
   IUNSCR =        1    unscreen: 0-lin 1-nonlin 2-no                                               
   RPACOR =    0.800    partial core radius                                                         
   POMASS =   12.011; ZVAL   =    4.000    mass and valenz                                          
   RCORE  =    1.100    outmost cutoff radius                                                       
   RWIGS  =    1.630; RWIGS  =    0.863    wigner-seitz radius (au A)                               
   ENMAX  =  700.000; ENMIN  =  500.000 eV                                                          
   ICORE  =        2    local potential                                                             
   LCOR   =        T    correct aug charges                                                         
   LPAW   =        T    paw PP                                                                      
   EAUG   =  946.768                                                                                
   DEXC   =    0.000                                                                                
   RMAX   =    1.128    core radius for proj-oper                                                   
   RAUG   =    1.300    factor for augmentation sphere                                              
   RDEP   =    1.162    radius for radial grids                                                     
   RDEPT  =    1.088    core radius for aug-charge                                                  
                                                                                                    
   Atomic configuration                                                                             
    4 entries                                                                                       
     n  l   j            E        occ.                                                              
     1  0  0.50      -273.3789   2.0000                                                             
     2  0  0.50       -13.7508   2.0000                                                             
     2  1  0.50        -5.2854   2.0000                                                             
     3  2  1.50        -5.4423   0.0000                                                             
   Description                                                                                      
     l       E           TYP  RCUT    TYP  RCUT                                                     
     0    -13.7508458     23  1.100                                                                 
     0     -8.2022199     23  1.100                                                                 
     1     -5.2854383     23  1.100                                                                 
     1      1.1560700     23  1.100                                                                 
     2     -5.4423304      7  1.100                                                                 
  local pseudopotential read in
  partial core-charges read in
  partial kinetic energy density read in
  atomic valenz-charges read in
  non local Contribution for L=           0  read in
    real space projection operators read in
  non local Contribution for L=           0  read in
    real space projection operators read in
  non local Contribution for L=           1  read in
    real space projection operators read in
  non local Contribution for L=           1  read in
    real space projection operators read in
    PAW grid and wavefunctions read in
 
   number of l-projection  operators is LMAX  =           4
   number of lm-projection operators is LMMAX =           8
 
 POTCAR:    PAW_PBE O_h 06Feb2004                 
   VRHFIN =O: s2p4                                                                                  
   LEXCH  = PE                                                                                      
   EATOM  =   432.3788 eV,   31.7789 Ry                                                             
                                                                                                    
   TITEL  = PAW_PBE O_h 06Feb2004                                                                   
   LULTRA =        F    use ultrasoft PP ?                                                          
   IUNSCR =        1    unscreen: 0-lin 1-nonlin 2-no                                               
   RPACOR =    0.800    partial core radius                                                         
   POMASS =   16.000; ZVAL   =    6.000    mass and valenz                                          
   RCORE  =    1.100    outmost cutoff radius                                                       
   RWIGS  =    1.400; RWIGS  =    0.741    wigner-seitz radius (au A)                               
   ENMAX  =  700.000; ENMIN  =  500.000 eV                                                          
   ICORE  =        2    local potential                                                             
   LCOR   =        T    correct aug charges                                                         
   LPAW   =        T    paw PP                                                                      
   EAUG   =  888.804                                                                                
   DEXC   =    0.000                                                                                
   RMAX   =    1.128    core radius for proj-oper                                                   
   RAUG   =    1.300    factor for augmentation sphere                                              
   RDEP   =    1.125    radius for radial grids                                                     
   RDEPT  =    1.088    core radius for aug-charge                                                  
                                                                                                    
   Atomic configuration                                                                             
    4 entries                                                                                       
     n  l   j            E        occ.                                                              
     1  0  0.50      -514.6923   2.0000                                                             
     2  0  0.50       -23.9615   2.0000                                                             
     2  1  0.50        -9.0305   4.0000                                                             
     3  2  1.50        -9.5241   0.0000                                                             
   Description                                                                                      
     l       E           TYP  RCUT    TYP  RCUT                                                     
     0    -23.9615319     23  1.100                                                                 
     0    -25.3221145     23  1.100                                                                 
     1     -9.0304911     23  1.100                                                                 
     1     -5.4802209     23  1.100                                                                 
     2     -9.5240782      7  1.100                                                                 
  local pseudopotential read in
  partial core-charges read in
  partial kinetic energy density read in
  atomic valenz-charges read in
  non local Contribution for L=           0  read in
    real space projection operators read in
  non local Contribution for L=           0  read in
    real space projection operators read in
  non local Contribution for L=           1  read in
    real space projection operators read in
  non local Contribution for L=           1  read in
    real space projection operators read in
    PAW grid and wavefunctions read in
 
   number of l-projection  operators is LMAX  =           4
   number of lm-projection operators is LMMAX =           8
 
 -----------------------------------------------------------------------------
|                                                                             |
|               ----> ADVICE to this user running VASP <----                  |
|                                                                             |
|     You have a (more or less) 'large supercell' and for larger cells it     |
|     might be more efficient to use real-space projection operators.         |
|     Therefore, try LREAL= Auto in the INCAR file.                           |
|     Mind: For very accurate calculation, you might also keep the            |
|     reciprocal projection scheme (i.e. LREAL=.FALSE.).                      |
|                                                                             |
 -----------------------------------------------------------------------------

 -----------------------------------------------------------------------------
|                                                                             |
|               ----> ADVICE to this user running VASP <----                  |
|                                                                             |
|     You enforced a specific xc type in the INCAR file but a different       |
|     type was found in the POTCAR file.                                      |
|     I HOPE YOU KNOW WHAT YOU ARE DOING!                                     |
|                                                                             |
 -----------------------------------------------------------------------------

  PAW_PBE C_h 06Feb2004                 :
 energy of atom  1       EATOM= -147.1560
 kinetic energy error for atom=    0.0031 (will be added to EATOM!!)
  PAW_PBE O_h 06Feb2004                 :
 energy of atom  2       EATOM= -432.3788
 kinetic energy error for atom=    0.0171 (will be added to EATOM!!)
 
 
 POSCAR:  C  O
  positions in cartesian coordinates
  No initial velocities read in
 exchange correlation table for  LEXCH =       43
   RHO(1)=    0.500       N(1)  =     2000
   RHO(2)=  100.500       N(2)  =     4000
 


--------------------------------------------------------------------------------------------------------


 ion  position               nearest neighbor table
   1  0.972  0.000  0.001-  50 1.42   2 1.42  42 1.42
   2  0.039  0.134  0.000-   5 1.42   7 1.42   1 1.42
   3  0.172  0.000  0.000-  42 1.42  44 1.42   4 1.42
   4  0.239  0.134  0.000-   7 1.42   3 1.42  23 1.42
   5  0.972  0.200  0.000-   6 1.42   2 1.42  34 1.42
   6  0.039  0.334  0.000-   5 1.42  21 1.42  11 1.42
   7  0.172  0.200  0.000-   8 1.42   2 1.42   4 1.42
   8  0.239  0.334  0.000-  13 1.42   7 1.42  21 1.42
   9  0.372  0.000  0.000-  10 1.42  44 1.42  46 1.42
  10  0.439  0.134  0.000-  27 1.42   9 1.42  23 1.42
  11  0.972  0.400  0.001-  12 1.42  36 1.42   6 1.42
  12  0.039  0.534  0.001-  25 1.42  11 1.42  17 1.42
  13  0.372  0.400  0.000-   8 1.42  14 1.42  24 1.42
  14  0.439  0.534  0.000-  13 1.42  29 1.42  19 1.42
  15  0.572  0.000  0.001-  46 1.42  16 1.42  48 1.42
  16  0.639  0.134  0.001-  15 1.42  35 1.42  27 1.42
  17  0.972  0.600  0.001-  38 1.42  18 1.42  12 1.42
  18  0.039  0.734  0.001-  43 1.42  41 1.42  17 1.42
  19  0.572  0.600  0.000-  14 1.42  20 1.42  32 1.42
  20  0.639  0.734  0.001-  49 1.42  19 1.42  47 1.42
  21  0.172  0.400  0.000-  22 1.42   8 1.42   6 1.42
  22  0.239  0.534  0.000-  21 1.42  29 1.42  25 1.42
  23  0.372  0.200  0.000-  10 1.42   4 1.42  24 1.42
  24  0.439  0.334  0.000-  13 1.42  31 1.42  23 1.42
  25  0.172  0.600  0.001-  26 1.42  12 1.42  22 1.42
  26  0.239  0.734  0.001-  25 1.42  45 1.42  43 1.42
  27  0.572  0.200  0.000-  10 1.42  28 1.42  16 1.42
  28  0.639  0.334  0.000-  27 1.42  37 1.42  31 1.42
  29  0.372  0.600  0.000-  22 1.42  14 1.42  30 1.42
  30  0.439  0.734  0.000-  47 1.42  29 1.42  45 1.42
  31  0.572  0.400  0.000-  32 1.42  28 1.42  24 1.42
  32  0.639  0.534  0.000-  31 1.42  39 1.42  19 1.42
  33  0.772  0.000  0.001-  34 1.42  48 1.42  50 1.42
  34  0.839  0.134  0.001-  33 1.42   5 1.42  35 1.42
  35  0.772  0.200  0.001-  36 1.42  16 1.42  34 1.42
  36  0.839  0.334  0.001-  35 1.42  11 1.42  37 1.42
  37  0.772  0.400  0.001-  28 1.42  38 1.42  36 1.42
  38  0.839  0.534  0.001-  17 1.42  37 1.42  39 1.42
  39  0.772  0.600  0.001-  40 1.42  38 1.42  32 1.42
  40  0.839  0.734  0.001-  39 1.42  49 1.42  41 1.42
  41  0.972  0.800  0.001-  18 1.42  42 1.42  40 1.42
  42  0.039  0.934  0.001-   3 1.42  41 1.42   1 1.42
  43  0.172  0.800  0.001-  18 1.42  44 1.42  26 1.42
  44  0.239  0.934  0.001-   9 1.42  43 1.42   3 1.42
  45  0.372  0.800  0.001-  26 1.42  46 1.42  30 1.42
  46  0.439  0.934  0.001-  15 1.42  45 1.42   9 1.42
  47  0.572  0.800  0.001-  30 1.42  48 1.42  20 1.42
  48  0.639  0.934  0.001-  47 1.42  33 1.42  15 1.42
  49  0.772  0.800  0.001-  50 1.42  20 1.42  40 1.42
  50  0.839  0.934  0.001-  49 1.42   1 1.42  33 1.42
  51  0.373  0.251  0.224-  52 1.18  53 1.18
  52  0.421  0.189  0.227-  51 1.18
  53  0.325  0.313  0.222-  51 1.18
 
  LATTYP: Found a hexagonal cell.
 ALAT       =    12.3250000000
 C/A-ratio  =     2.0283975659
  
  Lattice vectors:
  
 A1 = (  12.3250000000,   0.0000000000,   0.0000000000)
 A2 = (  -6.1625000000,  10.6737631016,   0.0000000000)
 A3 = (   0.0000000000,   0.0000000000,  25.0000000000)


Analysis of symmetry for initial positions (statically):
=====================================================================
 Subroutine PRICEL returns:
 Original cell was already a primitive cell.
 

 Routine SETGRP: Setting up the symmetry group for a 
 hexagonal supercell.


 Subroutine GETGRP returns: Found  1 space group operations
 (whereof  1 operations were pure point group operations)
 out of a pool of 24 trial point group operations.


The static configuration has the point symmetry C_1 .


Analysis of symmetry for dynamics (positions and initial velocities):
=====================================================================
 Subroutine PRICEL returns:
 Original cell was already a primitive cell.
 

 Routine SETGRP: Setting up the symmetry group for a 
 hexagonal supercell.


 Subroutine GETGRP returns: Found  1 space group operations
 (whereof  1 operations were pure point group operations)
 out of a pool of 24 trial point group operations.


The dynamic configuration has the point symmetry C_1 .


 Subroutine INISYM returns: Found  1 space group operations
 (whereof  1 operations are pure point group operations),
 and found     1 'primitive' translations


----------------------------------------------------------------------------------------

                                     Primitive cell                                     

  volume of cell :    3288.8533

  direct lattice vectors                    reciprocal lattice vectors
    12.325000000  0.000000000  0.000000000     0.081135903  0.046843835  0.000000000
    -6.162500000 10.673763102  0.000000000     0.000000000  0.093687670  0.000000000
     0.000000000  0.000000000 25.000000000     0.000000000  0.000000000  0.040000000

  length of vectors
    12.325000000 12.325000000 25.000000000     0.093687670  0.093687670  0.040000000

  position of ions in fractional coordinates (direct lattice)
     0.972450841  0.000320818  0.000566711
     0.039118382  0.133659505  0.000440173
     0.172443627  0.000295449  0.000499628
     0.239096278  0.133647917  0.000256468
     0.972452058  0.200322012  0.000485219
     0.039128360  0.333643771  0.000444150
     0.172451764  0.200354552  0.000219167
     0.239124359  0.333665720  0.000072260
     0.372465565  0.000324403  0.000453913
     0.439137473  0.133619939  0.000258338
     0.972449824  0.400309362  0.000547611
     0.039124981  0.533636789  0.000573410
     0.372416176  0.400329481  0.000000000
     0.439099602  0.533638981  0.000232414
     0.572443676  0.000312125  0.000559580
     0.639110207  0.133631751  0.000547275
     0.972452703  0.600305653  0.000640289
     0.039124495  0.733640359  0.000654513
     0.572433471  0.600306242  0.000402895
     0.639111888  0.733641879  0.000527905
     0.172454630  0.400318228  0.000289045
     0.239120185  0.533636548  0.000378509
     0.372459750  0.200295993  0.000088997
     0.439107096  0.333673419  0.000055762
     0.172452155  0.600311506  0.000524340
     0.239123371  0.733638574  0.000575129
     0.572431082  0.200289171  0.000413296
     0.639112773  0.333618630  0.000462376
     0.372439808  0.600308022  0.000362844
     0.439116090  0.733637858  0.000494190
     0.572469358  0.400320504  0.000339918
     0.639119408  0.533650873  0.000459610
     0.772445723  0.000315427  0.000596161
     0.839116277  0.133640203  0.000575306
     0.772440513  0.200307432  0.000581033
     0.839120241  0.333635728  0.000585467
     0.772446320  0.400298367  0.000582978
     0.839118980  0.533633964  0.000621100
     0.772456143  0.600308173  0.000595712
     0.839115033  0.733643180  0.000631512
     0.972455313  0.800305582  0.000652233
     0.039114714  0.933643289  0.000598051
     0.172457971  0.800312211  0.000623372
     0.239134551  0.933647193  0.000544850
     0.372451396  0.800316674  0.000551399
     0.439124489  0.933644769  0.000541430
     0.572441101  0.800310054  0.000534535
     0.639115067  0.933638985  0.000587644
     0.772445098  0.800313187  0.000602062
     0.839116614  0.933644338  0.000606830
     0.373021009  0.251226878  0.224492410
     0.420879805  0.189313152  0.227069284
     0.325156981  0.313167186  0.222114215

  ion indices of the primitive-cell ions
   primitive index   ion index
                 1           1
                 2           2
                 3           3
                 4           4
                 5           5
                 6           6
                 7           7
                 8           8
                 9           9
                10          10
                11          11
                12          12
                13          13
                14          14
                15          15
                16          16
                17          17
                18          18
                19          19
                20          20
                21          21
                22          22
                23          23
                24          24
                25          25
                26          26
                27          27
                28          28
                29          29
                30          30
                31          31
                32          32
                33          33
                34          34
                35          35
                36          36
                37          37
                38          38
                39          39
                40          40
                41          41
                42          42
                43          43
                44          44
                45          45
                46          46
                47          47
                48          48
                49          49
                50          50
                51          51
                52          52
                53          53

----------------------------------------------------------------------------------------

 
 
 KPOINTS: auto                                    

Automatic generation of k-mesh.
 Grid dimensions read from file:
 generate k-points for:    1    1    1

 Generating k-lattice:

  Cartesian coordinates                     Fractional coordinates (reciprocal lattice)
     0.081135903  0.046843835  0.000000000     1.000000000 -0.000000000  0.000000000
     0.000000000  0.093687670  0.000000000     0.000000000  1.000000000  0.000000000
     0.000000000  0.000000000  0.040000000     0.000000000  0.000000000  1.000000000

  Length of vectors
     0.093687670  0.093687670  0.040000000

  Shift w.r.t. Gamma in fractional coordinates (k-lattice)
     0.000000000  0.000000000  0.000000000

 
 Subroutine IBZKPT returns following result:
 ===========================================
 
 Found      1 irreducible k-points:
 
 Following reciprocal coordinates:
            Coordinates               Weight
  0.000000  0.000000  0.000000      1.000000
 
 Following cartesian coordinates:
            Coordinates               Weight
  0.000000  0.000000  0.000000      1.000000
 


--------------------------------------------------------------------------------------------------------




 Dimension of arrays:
   k-points           NKPTS =      1   k-points in BZ     NKDIM =      1   number of bands    NBANDS=    136
   number of dos      NEDOS =    301   number of ions     NIONS =     53
   non local maximal  LDIM  =      4   non local SUM 2l+1 LMDIM =      8
   total plane-waves  NPLWV = ******
   max r-space proj   IRMAX =      1   max aug-charges    IRDMAX=  10008
   dimension x,y,z NGX =   128 NGY =  128 NGZ =  270
   dimension x,y,z NGXF=   256 NGYF=  256 NGZF=  540
   support grid    NGXF=   256 NGYF=  256 NGZF=  540
   ions per type =              51   2
   NGX,Y,Z   is equivalent  to a cutoff of  17.27, 17.27, 17.95 a.u.
   NGXF,Y,Z  is equivalent  to a cutoff of  34.53, 34.53, 35.91 a.u.

 SYSTEM =  unknown system                          
 POSCAR =   C  O                                   

 Startparameter for this run:
   NWRITE =      2    write-flag & timer
   PREC   = accura    normal or accurate (medium, high low for compatibility)
   ISTART =      0    job   : 0-new  1-cont  2-samecut
   ICHARG =      2    charge: 1-file 2-atom 10-const
   ISPIN  =      1    spin polarized calculation?
   LNONCOLLINEAR =      F non collinear calculations
   LSORBIT =      F    spin-orbit coupling
   INIWAV =      1    electr: 0-lowe 1-rand  2-diag
   LASPH  =      T    aspherical Exc in radial PAW
 Electronic Relaxation 1
   ENCUT  = 1000.0 eV  73.50 Ry    8.57 a.u.  31.78 31.78 64.46*2*pi/ulx,y,z
   ENINI  = 1000.0     initial cutoff
   ENAUG  =  946.8 eV  augmentation charge cutoff
   NELM   =     60;   NELMIN=  2; NELMDL= -5     # of ELM steps 
   EDIFF  = 0.1E-06   stopping-criterion for ELM
   LREAL  =      F    real-space projection
   NLSPLINE    = F    spline interpolate recip. space projectors
   LCOMPAT=      F    compatible to vasp.4.4
   GGA_COMPAT  = T    GGA compatible to vasp.4.4-vasp.4.6
   LMAXPAW     = -100 max onsite density
   LMAXMIX     =    2 max onsite mixed and CHGCAR
   VOSKOWN=      0    Vosko Wilk Nusair interpolation
   ROPT   =    0.00000   0.00000
 Ionic relaxation
   EDIFFG = 0.1E-05   stopping-criterion for IOM
   NSW    =      0    number of steps for IOM
   NBLOCK =      1;   KBLOCK =      1    inner block; outer block 
   IBRION =     -1    ionic relax: 0-MD 1-quasi-New 2-CG
   NFREE  =      0    steps in history (QN), initial steepest desc. (CG)
   ISIF   =      0    stress and relaxation
   IWAVPR =     10    prediction:  0-non 1-charg 2-wave 3-comb
   ISYM   =      2    0-nonsym 1-usesym 2-fastsym
   LCORR  =      T    Harris-Foulkes like correction to forces

   POTIM  = 0.5000    time-step for ionic-motion
   TEIN   =    0.0    initial temperature
   TEBEG  =    0.0;   TEEND  =   0.0 temperature during run
   SMASS  =  -3.00    Nose mass-parameter (am)
   estimated Nose-frequenzy (Omega)   =  0.10E-29 period in steps = 0.13E+47 mass=  -0.347E-26a.u.
   SCALEE = 1.0000    scale energy and forces
   NPACO  =    256;   APACO  = 16.0  distance and # of slots for P.C.
   PSTRESS=    0.0 pullay stress

  Mass of Ions in am
   POMASS =  12.01 16.00
  Ionic Valenz
   ZVAL   =   4.00  6.00
  Atomic Wigner-Seitz radii
   RWIGS  =  -1.00 -1.00
  virtual crystal weights 
   VCA    =   1.00  1.00
   NELECT =     216.0000    total number of electrons
   NUPDOWN=      -1.0000    fix difference up-down

 DOS related values:
   EMIN   =  10.00;   EMAX   =-10.00  energy-range for DOS
   EFERMI =   0.00
   ISMEAR =     0;   SIGMA  =   0.01  broadening in eV -4-tet -1-fermi 0-gaus

 Electronic relaxation 2 (details)
   IALGO  =     58    algorithm
   LDIAG  =      T    sub-space diagonalisation (order eigenvalues)
   LSUBROT=      F    optimize rotation matrix (better conditioning)
   TURBO    =      0    0=normal 1=particle mesh
   IRESTART =      0    0=no restart 2=restart with 2 vectors
   NREBOOT  =      0    no. of reboots
   NMIN     =      0    reboot dimension
   EREF     =   0.00    reference energy to select bands
   IMIX   =      4    mixing-type and parameters
     AMIX     =   0.40;   BMIX     =  1.00
     AMIX_MAG =   1.60;   BMIX_MAG =  1.00
     AMIN     =   0.10
     WC   =   100.;   INIMIX=   1;  MIXPRE=   1;  MAXMIX= -45

 Intra band minimization:
   WEIMIN = 0.0000     energy-eigenvalue tresh-hold
   EBREAK =  0.18E-09  absolut break condition
   DEPER  =   0.30     relativ break condition  

   TIME   =   0.40     timestep for ELM

  volume/ion in A,a.u.               =      62.05       418.76
  Fermi-wavevector in a.u.,A,eV,Ry     =   0.660508  1.248179  5.935820  0.436270
  Thomas-Fermi vector in A             =   1.732977
 
 Write flags
   LWAVE        =      T    write WAVECAR
   LDOWNSAMPLE  =      F    k-point downsampling of WAVECAR
   LCHARG       =      T    write CHGCAR
   LVTOT        =      F    write LOCPOT, total local potential
   LVHAR        =      F    write LOCPOT, Hartree potential only
   LELF         =      F    write electronic localiz. function (ELF)
   LORBIT       =      0    0 simple, 1 ext, 2 COOP (PROOUT), +10 PAW based schemes


 Dipole corrections
   LMONO  =      F    monopole corrections only (constant potential shift)
   LDIPOL =      F    correct potential (dipole corrections)
   IDIPOL =      0    1-x, 2-y, 3-z, 4-all directions 
   EPSILON=  1.0000000 bulk dielectric constant

 Exchange correlation treatment:
   GGA     =    MK    GGA type
   LEXCH   =    43    internal setting for exchange type
   VOSKOWN=      0    Vosko Wilk Nusair interpolation
   LHFCALC =     F    Hartree Fock is set to
   LHFONE  =     F    Hartree Fock one center treatment
   AEXX    =    0.0000 exact exchange contribution

 vdW DFT:
   LUSE_VDW   =     T    switch on vdW DFT
   Zab_VDW    =******    correlation parameter
   PARAM1     =0.1234
   PARAM2     =0.7114
   PARAM3     =0.0000
   -- rVV10 --
   BPARAM     = 6.3000
   CPARAM     = 0.0093

 Linear response parameters
   LEPSILON=     F    determine dielectric tensor
   LRPA    =     F    only Hartree local field effects (RPA)
   LNABLA  =     F    use nabla operator in PAW spheres
   LVEL    =     F    velocity operator in full k-point grid
   LINTERFAST=   F  fast interpolation
   KINTER  =     0    interpolate to denser k-point grid
   CSHIFT  =0.1000    complex shift for real part using Kramers Kronig
   OMEGAMAX=  -1.0    maximum frequency
   DEG_THRESHOLD= 0.2000000E-02 threshold for treating states as degnerate
   RTIME   =   -0.100 relaxation time in fs
  (WPLASMAI=    0.000 imaginary part of plasma frequency in eV, 0.658/RTIME)
   DFIELD  = 0.0000000 0.0000000 0.0000000 field for delta impulse in time
 
 Orbital magnetization related:
   ORBITALMAG=     F  switch on orbital magnetization
   LCHIMAG   =     F  perturbation theory with respect to B field
   DQ        =  0.001000  dq finite difference perturbation B field
   LLRAUG    =     F  two centre corrections for induced B field



--------------------------------------------------------------------------------------------------------


 Static calculation
 charge density and potential will be updated during run
 non-spin polarized calculation
 Conjugate gradient for all bands (Freysoldt, et al. PRB 79, 241103 (2009))
 preconditioned conjugated gradient                                        
 perform sub-space diagonalisation
    before iterative eigenvector-optimisation
 modified Broyden-mixing scheme, WC =      100.0
 initial mixing is a Kerker type mixing with AMIX =  0.4000 and BMIX =      1.0000
 Hartree-type preconditioning will be used
 using additional bands           28
 reciprocal scheme for non local part
 use partial core corrections
 no Harris-corrections to forces 
 use gradient corrections 
 use of overlap-Matrix (Vanderbilt PP)
 Gauss-broadening in eV      SIGMA  =   0.01


--------------------------------------------------------------------------------------------------------


  energy-cutoff  :     1000.00
  volume of cell :     3288.85
      direct lattice vectors                 reciprocal lattice vectors
    12.325000000  0.000000000  0.000000000     0.081135903  0.046843835  0.000000000
    -6.162500000 10.673763102  0.000000000     0.000000000  0.093687670  0.000000000
     0.000000000  0.000000000 25.000000000     0.000000000  0.000000000  0.040000000

  length of vectors
    12.325000000 12.325000000 25.000000000     0.093687670  0.093687670  0.040000000


 
 k-points in units of 2pi/SCALE and weight: auto                                    
   0.00000000  0.00000000  0.00000000       1.000
 
 k-points in reciprocal lattice and weights: auto                                    
   0.00000000  0.00000000  0.00000000       1.000
 
 position of ions in fractional coordinates (direct lattice) 
   0.97245084  0.00032082  0.00056671
   0.03911838  0.13365950  0.00044017
   0.17244363  0.00029545  0.00049963
   0.23909628  0.13364792  0.00025647
   0.97245206  0.20032201  0.00048522
   0.03912836  0.33364377  0.00044415
   0.17245176  0.20035455  0.00021917
   0.23912436  0.33366572  0.00007226
   0.37246557  0.00032440  0.00045391
   0.43913747  0.13361994  0.00025834
   0.97244982  0.40030936  0.00054761
   0.03912498  0.53363679  0.00057341
   0.37241618  0.40032948  0.00000000
   0.43909960  0.53363898  0.00023241
   0.57244368  0.00031213  0.00055958
   0.63911021  0.13363175  0.00054727
   0.97245270  0.60030565  0.00064029
   0.03912449  0.73364036  0.00065451
   0.57243347  0.60030624  0.00040289
   0.63911189  0.73364188  0.00052791
   0.17245463  0.40031823  0.00028904
   0.23912018  0.53363655  0.00037851
   0.37245975  0.20029599  0.00008900
   0.43910710  0.33367342  0.00005576
   0.17245216  0.60031151  0.00052434
   0.23912337  0.73363857  0.00057513
   0.57243108  0.20028917  0.00041330
   0.63911277  0.33361863  0.00046238
   0.37243981  0.60030802  0.00036284
   0.43911609  0.73363786  0.00049419
   0.57246936  0.40032050  0.00033992
   0.63911941  0.53365087  0.00045961
   0.77244572  0.00031543  0.00059616
   0.83911628  0.13364020  0.00057531
   0.77244051  0.20030743  0.00058103
   0.83912024  0.33363573  0.00058547
   0.77244632  0.40029837  0.00058298
   0.83911898  0.53363396  0.00062110
   0.77245614  0.60030817  0.00059571
   0.83911503  0.73364318  0.00063151
   0.97245531  0.80030558  0.00065223
   0.03911471  0.93364329  0.00059805
   0.17245797  0.80031221  0.00062337
   0.23913455  0.93364719  0.00054485
   0.37245140  0.80031667  0.00055140
   0.43912449  0.93364477  0.00054143
   0.57244110  0.80031005  0.00053453
   0.63911507  0.93363899  0.00058764
   0.77244510  0.80031319  0.00060206
   0.83911661  0.93364434  0.00060683
   0.37302101  0.25122688  0.22449241
   0.42087980  0.18931315  0.22706928
   0.32515698  0.31316719  0.22211421
 
 position of ions in cartesian coordinates  (Angst):
  11.98347958  0.00342433  0.01416777
  -0.34154264  1.42664989  0.01100432
   2.12354700  0.00315355  0.01249070
   2.12325634  1.42652621  0.00641170
  10.75098721  2.13818970  0.01213047
  -1.57382270  3.56123457  0.01110375
   0.89078307  2.13853702  0.00547917
   0.89099273  3.56146885  0.00180651
   4.58863896  0.00346260  0.01134782
   4.58893648  1.42622757  0.00645846
   9.51853763  4.27280730  0.01369027
  -2.80632132  5.69591267  0.01433526
   2.12299894  4.27302204  0.00000000
   2.12335237  5.69593607  0.00581036
   7.05344483  0.00333155  0.01398950
   7.05352764  1.42635365  0.01368187
   8.28609598  6.40752033  0.01600723
  -4.03884931  7.83070339  0.01636283
   3.35585531  6.40752662  0.01007237
   3.35598594  7.83071962  0.01319763
  -0.34145776  4.27290193  0.00722612
  -0.34137895  5.69591010  0.00946273
   3.35624236  2.13791198  0.00222492
   3.35573251  3.56155103  0.00139405
  -1.57394684  6.40758280  0.01310850
  -1.57385216  7.83068434  0.01437823
   5.82093107  2.13783916  0.01033241
   5.82114012  3.56096622  0.01155939
   0.89092245  6.40754561  0.00907111
   0.89106251  7.83067670  0.01235474
   4.58870974  4.27292622  0.00849795
   4.58852320  5.69606300  0.01149026
   9.51844972  0.00336679  0.01490402
   9.51855036  1.42644387  0.01438264
   8.28593477  2.13803408  0.01452582
   8.28612680  3.56114872  0.01463668
   7.05356221  4.27268994  0.01457444
   7.05362213  5.69588251  0.01552751
   5.82112285  6.40754723  0.01489279
   5.82101669  7.83073350  0.01578780
   7.05362858  8.54227219  0.01630582
  -5.27148792  9.96548729  0.01495127
  -2.80637951  8.54234295  0.01558431
  -2.80626749  9.96552896  0.01362126
  -0.34148805  8.54239058  0.01378498
  -0.34137657  9.96550309  0.01353576
   2.12342586  8.54231992  0.01336337
   2.12354296  9.96544135  0.01469111
   4.58845581  8.54235337  0.01505154
   4.58852904  9.96549848  0.01517076
   3.04929830  2.68153618  5.61231024
   4.02070129  2.02068374  5.67673210
   2.07766701  3.34267235  5.55285537
 


--------------------------------------------------------------------------------------------------------


 k-point   1 :   0.0000 0.0000 0.0000  plane waves:  236157

 maximum and minimum number of plane-waves per node :      8440     8428

 maximum number of plane-waves:    236157
 maximum index in each direction: 
   IXMAX=   31   IYMAX=   31   IZMAX=   64
   IXMIN=  -31   IYMIN=  -31   IZMIN=  -64


 parallel 3D FFT for wavefunctions:
    minimum data exchange during FFTs selected (reduces bandwidth)
 parallel 3D FFT for charge:
    minimum data exchange during FFTs selected (reduces bandwidth)


 total amount of memory used by VASP MPI-rank0   100580. kBytes
=======================================================================

   base      :      30000. kBytes
   nonl-proj :       8229. kBytes
   fftplans  :      18352. kBytes
   grid      :      30208. kBytes
   one-center:          6. kBytes
   wavefun   :      13785. kBytes
 
     INWAV:  cpu time    0.0000: real time    0.0000
 Broyden mixing: mesh for mixing (old mesh)
   NGX = 63   NGY = 63   NGZ =129
  (NGX  =256   NGY  =256   NGZ  =540)
  gives a total of 512001 points

 initial charge density was supplied:
 charge density of overlapping atoms calculated
 number of electron     216.0000000 magnetization 
 keeping initial charge density in first step


--------------------------------------------------------------------------------------------------------


 Maximum index for augmentation-charges          471 (set IRDMAX)


--------------------------------------------------------------------------------------------------------


 First call to EWALD:  gamma=   0.119
 Maximum number of real-space cells 4x 4x 2
 Maximum number of reciprocal cells 2x 2x 4

    FEWALD:  cpu time    0.0025: real time    0.0025


--------------------------------------- Iteration      1(   1)  ---------------------------------------


vdW kernel read from vdw_kernel.bindat
  0.0000  0.2424  0.5071  0.7962  1.1119  1.4567  1.8333  2.2446  2.6937  3.1842
  3.7199  4.3049  4.9438  5.6415  6.4036  7.2358  8.1446  9.1372 10.2212 11.4050
 12.6979 14.1099 15.6519 17.3360 19.1751 21.1837 23.3773 25.7729 28.3892 31.2465
 34.3669 37.7748 41.4965 45.5611 50.0000
 
    POTLOK:  cpu time    4.5807: real time    4.6173
    SETDIJ:  cpu time    0.0575: real time    0.0579
    TRIAL :  cpu time    2.0857: real time    2.1072
    CORREC:  cpu time    0.0004: real time    0.0006
    --------------------------------------------
      LOOP:  cpu time    6.7302: real time    6.7958

 eigenvalue-minimisations  :   288
 total energy-change (2. order) : 0.2750808E+04  (-0.1020479E+05)
 number of electron     216.0000000 magnetization 
 augmentation part      216.0000000 magnetization 

 Free energy of the ion-electron system (eV)
  ---------------------------------------------------
  alpha Z        PSCENC =        47.94900195
  Ewald energy   TEWEN  =     44016.25508261
  -Hartree energ DENC   =    -50085.43344884
  -exchange      EXHF   =         0.00000000
  -V(xc)+E(xc)   XCENC  =       412.33135172
  PAW double counting   =      6548.36373666    -6261.59511771
  entropy T*S    EENTRO =        -0.00000000
  eigenvalues    EBANDS =      -348.00898077
  atomic energy  EATOM  =      8420.94593319
  ---------------------------------------------------
  free energy    TOTEN  =      2750.80755882 eV

  energy without entropy =     2750.80755882  energy(sigma->0) =     2750.80755882


--------------------------------------------------------------------------------------------------------




--------------------------------------- Iteration      1(   2)  ---------------------------------------


    TRIAL :  cpu time    2.8308: real time    2.8562
    CORREC:  cpu time    0.0001: real time    0.0001
    --------------------------------------------
      LOOP:  cpu time    2.8746: real time    2.9015

 eigenvalue-minimisations  :   440
 total energy-change (2. order) :-0.2319305E+04  (-0.2172895E+04)
 number of electron     216.0000000 magnetization 
 augmentation part      216.0000000 magnetization 

 Free energy of the ion-electron system (eV)
  ---------------------------------------------------
  alpha Z        PSCENC =        47.94900195
  Ewald energy   TEWEN  =     44016.25508261
  -Hartree energ DENC   =    -50085.43344884
  -exchange      EXHF   =         0.00000000
  -V(xc)+E(xc)   XCENC  =       412.33135172
  PAW double counting   =      6548.36373666    -6261.59511771
  entropy T*S    EENTRO =        -0.00000000
  eigenvalues    EBANDS =     -2667.31353145
  atomic energy  EATOM  =      8420.94593319
  ---------------------------------------------------
  free energy    TOTEN  =       431.50300814 eV

  energy without entropy =      431.50300814  energy(sigma->0) =      431.50300814


--------------------------------------------------------------------------------------------------------




--------------------------------------- Iteration      1(   3)  ---------------------------------------


    TRIAL :  cpu time    2.3336: real time    2.3561
    CORREC:  cpu time    0.0001: real time    0.0001
    --------------------------------------------
      LOOP:  cpu time    2.3891: real time    2.4129

 eigenvalue-minimisations  :   344
 total energy-change (2. order) :-0.8140841E+03  (-0.8021944E+03)
 number of electron     216.0000000 magnetization 
 augmentation part      216.0000000 magnetization 

 Free energy of the ion-electron system (eV)
  ---------------------------------------------------
  alpha Z        PSCENC =        47.94900195
  Ewald energy   TEWEN  =     44016.25508261
  -Hartree energ DENC   =    -50085.43344884
  -exchange      EXHF   =         0.00000000
  -V(xc)+E(xc)   XCENC  =       412.33135172
  PAW double counting   =      6548.36373666    -6261.59511771
  entropy T*S    EENTRO =        -0.00000000
  eigenvalues    EBANDS =     -3481.39762815
  atomic energy  EATOM  =      8420.94593319
  ---------------------------------------------------
  free energy    TOTEN  =      -382.58108855 eV

  energy without entropy =     -382.58108855  energy(sigma->0) =     -382.58108855


--------------------------------------------------------------------------------------------------------




--------------------------------------- Iteration      1(   4)  ---------------------------------------


    TRIAL :  cpu time    2.3326: real time    2.3547
    CORREC:  cpu time    0.0001: real time    0.0001
    --------------------------------------------
      LOOP:  cpu time    2.3792: real time    2.4052

 eigenvalue-minimisations  :   344
 total energy-change (2. order) :-0.7552200E+02  (-0.7440496E+02)
 number of electron     216.0000000 magnetization 
 augmentation part      216.0000000 magnetization 

 Free energy of the ion-electron system (eV)
  ---------------------------------------------------
  alpha Z        PSCENC =        47.94900195
  Ewald energy   TEWEN  =     44016.25508261
  -Hartree energ DENC   =    -50085.43344884
  -exchange      EXHF   =         0.00000000
  -V(xc)+E(xc)   XCENC  =       412.33135172
  PAW double counting   =      6548.36373666    -6261.59511771
  entropy T*S    EENTRO =        -0.00000000
  eigenvalues    EBANDS =     -3556.91962784
  atomic energy  EATOM  =      8420.94593319
  ---------------------------------------------------
  free energy    TOTEN  =      -458.10308825 eV

  energy without entropy =     -458.10308825  energy(sigma->0) =     -458.10308825


--------------------------------------------------------------------------------------------------------




--------------------------------------- Iteration      1(   5)  ---------------------------------------


    TRIAL :  cpu time    2.3744: real time    2.3954
    CORREC:  cpu time    0.0000: real time    0.0000
    CHARGE:  cpu time    0.1781: real time    0.1801
    --------------------------------------------
      LOOP:  cpu time    2.6254: real time    2.6489

 eigenvalue-minimisations  :   352
 total energy-change (2. order) :-0.2229024E+01  (-0.2213395E+01)
 number of electron     216.0000000 magnetization 
 augmentation part       -0.2348334 magnetization 

 Free energy of the ion-electron system (eV)
  ---------------------------------------------------
  alpha Z        PSCENC =        47.94900195
  Ewald energy   TEWEN  =     44016.25508261
  -Hartree energ DENC   =    -50085.43344884
  -exchange      EXHF   =         0.00000000
  -V(xc)+E(xc)   XCENC  =       412.33135172
  PAW double counting   =      6548.36373666    -6261.59511771
  entropy T*S    EENTRO =        -0.00000000
  eigenvalues    EBANDS =     -3559.14865190
  atomic energy  EATOM  =      8420.94593319
  ---------------------------------------------------
  free energy    TOTEN  =      -460.33211231 eV

  energy without entropy =     -460.33211231  energy(sigma->0) =     -460.33211231


--------------------------------------------------------------------------------------------------------




--------------------------------------- Iteration      1(   6)  ---------------------------------------


    POTLOK:  cpu time    4.2826: real time    4.3155
    SETDIJ:  cpu time    0.0564: real time    0.0566
    TRIAL :  cpu time    1.1640: real time    1.1758
    CORREC:  cpu time    4.7533: real time    4.7911
    CHARGE:  cpu time    0.1780: real time    0.1797
    --------------------------------------------
      LOOP:  cpu time   10.4829: real time   10.5687

 eigenvalue-minimisations  :     0
 total energy-change (2. order) : 0.5247699E+02  (-0.1645295E+02)
 number of electron     216.0000000 magnetization 
 augmentation part       -0.3324254 magnetization 

 Free energy of the ion-electron system (eV)
  ---------------------------------------------------
  alpha Z        PSCENC =        47.94900195
  Ewald energy   TEWEN  =     44016.25508261
  -Hartree energ DENC   =    -51527.78792439
  -exchange      EXHF   =         0.00000000
  -V(xc)+E(xc)   XCENC  =       460.13695535
  PAW double counting   =     80788.06005601   -80507.71875386
  entropy T*S    EENTRO =        -0.00000000
  eigenvalues    EBANDS =     -2105.69546912
  atomic energy  EATOM  =      8420.94593319
  ---------------------------------------------------
  free energy    TOTEN  =      -407.85511826 eV

  energy without entropy =     -407.85511826  energy(sigma->0) =     -407.85511826


--------------------------------------------------------------------------------------------------------




--------------------------------------- Iteration      1(   7)  ---------------------------------------


    POTLOK:  cpu time    4.3194: real time    4.3557
    SETDIJ:  cpu time    0.0564: real time    0.0566
    TRIAL :  cpu time    1.1577: real time    1.1698
    CORREC:  cpu time    4.7780: real time    4.8192
    CHARGE:  cpu time    0.1791: real time    0.1808
    --------------------------------------------
      LOOP:  cpu time   10.5409: real time   10.6350

 eigenvalue-minimisations  :     0
 total energy-change (2. order) :-0.1650768E+02  (-0.1865956E+01)
 number of electron     216.0000000 magnetization 
 augmentation part       -0.3769422 magnetization 

 Free energy of the ion-electron system (eV)
  ---------------------------------------------------
  alpha Z        PSCENC =        47.94900195
  Ewald energy   TEWEN  =     44016.25508261
  -Hartree energ DENC   =    -51004.01297710
  -exchange      EXHF   =         0.00000000
  -V(xc)+E(xc)   XCENC  =       442.66151434
  PAW double counting   =     95749.87553752   -95466.78830651
  entropy T*S    EENTRO =        -0.00000000
  eigenvalues    EBANDS =     -2631.24858806
  atomic energy  EATOM  =      8420.94593319
  ---------------------------------------------------
  free energy    TOTEN  =      -424.36280205 eV

  energy without entropy =     -424.36280205  energy(sigma->0) =     -424.36280205


--------------------------------------------------------------------------------------------------------




--------------------------------------- Iteration      1(   8)  ---------------------------------------


    POTLOK:  cpu time    4.3020: real time    4.3351
    SETDIJ:  cpu time    0.0563: real time    0.0565
    TRIAL :  cpu time    1.1584: real time    1.1695
    CORREC:  cpu time    4.7569: real time    4.7965
    CHARGE:  cpu time    0.1783: real time    0.1802
    --------------------------------------------
      LOOP:  cpu time   10.5369: real time   10.6251

 eigenvalue-minimisations  :     0
 total energy-change (2. order) :-0.1864312E+01  (-0.5092615E+00)
 number of electron     216.0000000 magnetization 
 augmentation part       -0.3941826 magnetization 

 Free energy of the ion-electron system (eV)
  ---------------------------------------------------
  alpha Z        PSCENC =        47.94900195
  Ewald energy   TEWEN  =     44016.25508261
  -Hartree energ DENC   =    -50975.30052424
  -exchange      EXHF   =         0.00000000
  -V(xc)+E(xc)   XCENC  =       442.16411015
  PAW double counting   =     99700.09146926   -99416.67114820
  entropy T*S    EENTRO =        -0.00000000
  eigenvalues    EBANDS =     -2661.66103849
  atomic energy  EATOM  =      8420.94593319
  ---------------------------------------------------
  free energy    TOTEN  =      -426.22711378 eV

  energy without entropy =     -426.22711378  energy(sigma->0) =     -426.22711378


--------------------------------------------------------------------------------------------------------




--------------------------------------- Iteration      1(   9)  ---------------------------------------


    POTLOK:  cpu time    4.2805: real time    4.3115
    SETDIJ:  cpu time    0.0564: real time    0.0565
    TRIAL :  cpu time    1.1571: real time    1.1680
    CORREC:  cpu time    4.8108: real time    4.8473
    CHARGE:  cpu time    0.1789: real time    0.1813
    --------------------------------------------
      LOOP:  cpu time   10.5386: real time   10.6200

 eigenvalue-minimisations  :     0
 total energy-change (2. order) :-0.5092778E+00  (-0.1882114E+00)
 number of electron     216.0000000 magnetization 
 augmentation part       -0.4023212 magnetization 

 Free energy of the ion-electron system (eV)
  ---------------------------------------------------
  alpha Z        PSCENC =        47.94900195
  Ewald energy   TEWEN  =     44016.25508261
  -Hartree energ DENC   =    -50990.94320508
  -exchange      EXHF   =         0.00000000
  -V(xc)+E(xc)   XCENC  =       442.36732920
  PAW double counting   =    102411.25448514  -102127.68984387
  entropy T*S    EENTRO =        -0.00000000
  eigenvalues    EBANDS =     -2646.87517471
  atomic energy  EATOM  =      8420.94593319
  ---------------------------------------------------
  free energy    TOTEN  =      -426.73639157 eV

  energy without entropy =     -426.73639157  energy(sigma->0) =     -426.73639157


--------------------------------------------------------------------------------------------------------




--------------------------------------- Iteration      1(  10)  ---------------------------------------


    POTLOK:  cpu time    4.2655: real time    4.3001
    SETDIJ:  cpu time    0.0562: real time    0.0564
    TRIAL :  cpu time    1.1603: real time    1.1721
    CORREC:  cpu time    4.7450: real time    4.7809
    CHARGE:  cpu time    0.1783: real time    0.1801
    --------------------------------------------
      LOOP:  cpu time   10.4079: real time   10.5236

 eigenvalue-minimisations  :     0
 total energy-change (2. order) :-0.1877564E+00  (-0.8685734E-01)
 number of electron     216.0000000 magnetization 
 augmentation part       -0.4021740 magnetization 

 Free energy of the ion-electron system (eV)
  ---------------------------------------------------
  alpha Z        PSCENC =        47.94900195
  Ewald energy   TEWEN  =     44016.25508261
  -Hartree energ DENC   =    -50988.95873520
  -exchange      EXHF   =         0.00000000
  -V(xc)+E(xc)   XCENC  =       442.22266858
  PAW double counting   =    102977.65395036  -102693.99460116
  entropy T*S    EENTRO =        -0.00000000
  eigenvalues    EBANDS =     -2648.99744828
  atomic energy  EATOM  =      8420.94593319
  ---------------------------------------------------
  free energy    TOTEN  =      -426.92414795 eV

  energy without entropy =     -426.92414795  energy(sigma->0) =     -426.92414795


--------------------------------------------------------------------------------------------------------




--------------------------------------- Iteration      1(  11)  ---------------------------------------


    POTLOK:  cpu time    4.3033: real time    4.3342
    SETDIJ:  cpu time    0.0563: real time    0.0565
    TRIAL :  cpu time    1.1580: real time    1.1695
    CORREC:  cpu time    4.7525: real time    4.7890
    CHARGE:  cpu time    0.1790: real time    0.1808
    --------------------------------------------
      LOOP:  cpu time   10.5376: real time   10.6246

 eigenvalue-minimisations  :     0
 total energy-change (2. order) :-0.8648052E-01  (-0.3583466E-01)
 number of electron     216.0000000 magnetization 
 augmentation part       -0.4011284 magnetization 

 Free energy of the ion-electron system (eV)
  ---------------------------------------------------
  alpha Z        PSCENC =        47.94900195
  Ewald energy   TEWEN  =     44016.25508261
  -Hartree energ DENC   =    -50981.99240557
  -exchange      EXHF   =         0.00000000
  -V(xc)+E(xc)   XCENC  =       442.12180403
  PAW double counting   =    102526.05695178  -102242.39981694
  entropy T*S    EENTRO =        -0.00000000
  eigenvalues    EBANDS =     -2655.94717953
  atomic energy  EATOM  =      8420.94593319
  ---------------------------------------------------
  free energy    TOTEN  =      -427.01062847 eV

  energy without entropy =     -427.01062847  energy(sigma->0) =     -427.01062847


--------------------------------------------------------------------------------------------------------




--------------------------------------- Iteration      1(  12)  ---------------------------------------


    POTLOK:  cpu time    4.2964: real time    4.3261
    SETDIJ:  cpu time    0.0563: real time    0.0565
    TRIAL :  cpu time    1.1772: real time    1.1880
    CORREC:  cpu time    4.7994: real time    4.8351
    CHARGE:  cpu time    0.1784: real time    0.1801
    --------------------------------------------
      LOOP:  cpu time   10.5437: real time   10.6483

 eigenvalue-minimisations  :     0
 total energy-change (2. order) :-0.3572302E-01  (-0.1142285E-01)
 number of electron     216.0000000 magnetization 
 augmentation part       -0.4008284 magnetization 

 Free energy of the ion-electron system (eV)
  ---------------------------------------------------
  alpha Z        PSCENC =        47.94900195
  Ewald energy   TEWEN  =     44016.25508261
  -Hartree energ DENC   =    -50978.72045086
  -exchange      EXHF   =         0.00000000
  -V(xc)+E(xc)   XCENC  =       442.04613994
  PAW double counting   =    102133.90297520  -101850.26862907
  entropy T*S    EENTRO =        -0.00000000
  eigenvalues    EBANDS =     -2659.15640446
  atomic energy  EATOM  =      8420.94593319
  ---------------------------------------------------
  free energy    TOTEN  =      -427.04635149 eV

  energy without entropy =     -427.04635149  energy(sigma->0) =     -427.04635149


--------------------------------------------------------------------------------------------------------




--------------------------------------- Iteration      1(  13)  ---------------------------------------


    POTLOK:  cpu time    4.2984: real time    4.3295
    SETDIJ:  cpu time    0.0563: real time    0.0565
    TRIAL :  cpu time    1.1643: real time    1.1752
    CORREC:  cpu time    4.7543: real time    4.7913
    CHARGE:  cpu time    0.1790: real time    0.1808
    --------------------------------------------
      LOOP:  cpu time   10.4792: real time   10.5758

 eigenvalue-minimisations  :     0
 total energy-change (2. order) :-0.1141484E-01  (-0.3246505E-02)
 number of electron     216.0000000 magnetization 
 augmentation part       -0.4001703 magnetization 

 Free energy of the ion-electron system (eV)
  ---------------------------------------------------
  alpha Z        PSCENC =        47.94900195
  Ewald energy   TEWEN  =     44016.25508261
  -Hartree energ DENC   =    -50978.70125639
  -exchange      EXHF   =         0.00000000
  -V(xc)+E(xc)   XCENC  =       442.03509169
  PAW double counting   =    101965.75957047  -101682.13818911
  entropy T*S    EENTRO =        -0.00000000
  eigenvalues    EBANDS =     -2659.16300074
  atomic energy  EATOM  =      8420.94593319
  ---------------------------------------------------
  free energy    TOTEN  =      -427.05776633 eV

  energy without entropy =     -427.05776633  energy(sigma->0) =     -427.05776633


--------------------------------------------------------------------------------------------------------




--------------------------------------- Iteration      1(  14)  ---------------------------------------


    POTLOK:  cpu time    4.2937: real time    4.3249
    SETDIJ:  cpu time    0.0563: real time    0.0565
    TRIAL :  cpu time    1.1863: real time    1.1975
    CORREC:  cpu time    4.8827: real time    4.9197
    CHARGE:  cpu time    0.1788: real time    0.1805
    --------------------------------------------
      LOOP:  cpu time   10.6574: real time   10.7423

 eigenvalue-minimisations  :     0
 total energy-change (2. order) :-0.3248522E-02  (-0.1123646E-02)
 number of electron     216.0000000 magnetization 
 augmentation part       -0.3998498 magnetization 

 Free energy of the ion-electron system (eV)
  ---------------------------------------------------
  alpha Z        PSCENC =        47.94900195
  Ewald energy   TEWEN  =     44016.25508261
  -Hartree energ DENC   =    -50978.78517090
  -exchange      EXHF   =         0.00000000
  -V(xc)+E(xc)   XCENC  =       442.03550221
  PAW double counting   =    101949.62592127  -101666.00976693
  entropy T*S    EENTRO =        -0.00000000
  eigenvalues    EBANDS =     -2659.07751827
  atomic energy  EATOM  =      8420.94593319
  ---------------------------------------------------
  free energy    TOTEN  =      -427.06101485 eV

  energy without entropy =     -427.06101485  energy(sigma->0) =     -427.06101485


--------------------------------------------------------------------------------------------------------




--------------------------------------- Iteration      1(  15)  ---------------------------------------


    POTLOK:  cpu time    4.3103: real time    4.3399
    SETDIJ:  cpu time    0.0564: real time    0.0566
    TRIAL :  cpu time    1.1603: real time    1.1712
    CORREC:  cpu time    4.8320: real time    4.8702
    CHARGE:  cpu time    0.1780: real time    0.1800
    --------------------------------------------
      LOOP:  cpu time   10.5776: real time   10.6602

 eigenvalue-minimisations  :     0
 total energy-change (2. order) :-0.1126079E-02  (-0.5469475E-03)
 number of electron     216.0000000 magnetization 
 augmentation part       -0.3994270 magnetization 

 Free energy of the ion-electron system (eV)
  ---------------------------------------------------
  alpha Z        PSCENC =        47.94900195
  Ewald energy   TEWEN  =     44016.25508261
  -Hartree energ DENC   =    -50978.39125258
  -exchange      EXHF   =         0.00000000
  -V(xc)+E(xc)   XCENC  =       442.01552178
  PAW double counting   =    101946.43596426  -101662.81818629
  entropy T*S    EENTRO =        -0.00000000
  eigenvalues    EBANDS =     -2659.45420586
  atomic energy  EATOM  =      8420.94593319
  ---------------------------------------------------
  free energy    TOTEN  =      -427.06214093 eV

  energy without entropy =     -427.06214093  energy(sigma->0) =     -427.06214093


--------------------------------------------------------------------------------------------------------




--------------------------------------- Iteration      1(  16)  ---------------------------------------


    POTLOK:  cpu time    4.2873: real time    4.3194
    SETDIJ:  cpu time    0.0563: real time    0.0565
    TRIAL :  cpu time    1.1591: real time    1.1709
    CORREC:  cpu time    4.7845: real time    4.8230
    CHARGE:  cpu time    0.1784: real time    0.1802
    --------------------------------------------
      LOOP:  cpu time   10.5379: real time   10.6329

 eigenvalue-minimisations  :     0
 total energy-change (2. order) :-0.5484860E-03  (-0.2822259E-03)
 number of electron     216.0000000 magnetization 
 augmentation part       -0.3992913 magnetization 

 Free energy of the ion-electron system (eV)
  ---------------------------------------------------
  alpha Z        PSCENC =        47.94900195
  Ewald energy   TEWEN  =     44016.25508261
  -Hartree energ DENC   =    -50978.75619720
  -exchange      EXHF   =         0.00000000
  -V(xc)+E(xc)   XCENC  =       442.02861404
  PAW double counting   =    101894.76907638  -101611.15325365
  entropy T*S    EENTRO =        -0.00000000
  eigenvalues    EBANDS =     -2659.10094675
  atomic energy  EATOM  =      8420.94593319
  ---------------------------------------------------
  free energy    TOTEN  =      -427.06268942 eV

  energy without entropy =     -427.06268942  energy(sigma->0) =     -427.06268942


--------------------------------------------------------------------------------------------------------




--------------------------------------- Iteration      1(  17)  ---------------------------------------


    POTLOK:  cpu time    4.2744: real time    4.3064
    SETDIJ:  cpu time    0.0563: real time    0.0565
    TRIAL :  cpu time    1.1599: real time    1.1711
    CORREC:  cpu time    4.7505: real time    4.7936
    CHARGE:  cpu time    0.1788: real time    0.1807
    --------------------------------------------
      LOOP:  cpu time   10.4698: real time   10.5606

 eigenvalue-minimisations  :     0
 total energy-change (2. order) :-0.2831823E-03  (-0.1163486E-03)
 number of electron     216.0000000 magnetization 
 augmentation part       -0.3993638 magnetization 

 Free energy of the ion-electron system (eV)
  ---------------------------------------------------
  alpha Z        PSCENC =        47.94900195
  Ewald energy   TEWEN  =     44016.25508261
  -Hartree energ DENC   =    -50978.95071892
  -exchange      EXHF   =         0.00000000
  -V(xc)+E(xc)   XCENC  =       442.03242511
  PAW double counting   =    101839.93968851  -101556.32344273
  entropy T*S    EENTRO =        -0.00000000
  eigenvalues    EBANDS =     -2658.91094233
  atomic energy  EATOM  =      8420.94593319
  ---------------------------------------------------
  free energy    TOTEN  =      -427.06297260 eV

  energy without entropy =     -427.06297260  energy(sigma->0) =     -427.06297260


--------------------------------------------------------------------------------------------------------




--------------------------------------- Iteration      1(  18)  ---------------------------------------


    POTLOK:  cpu time    4.2947: real time    4.3248
    SETDIJ:  cpu time    0.0564: real time    0.0566
    TRIAL :  cpu time    1.1606: real time    1.1719
    CORREC:  cpu time    4.7645: real time    4.8022
    CHARGE:  cpu time    0.1799: real time    0.1819
    --------------------------------------------
      LOOP:  cpu time   10.5099: real time   10.6012

 eigenvalue-minimisations  :     0
 total energy-change (2. order) :-0.1163099E-03  (-0.4375050E-04)
 number of electron     216.0000000 magnetization 
 augmentation part       -0.3995287 magnetization 

 Free energy of the ion-electron system (eV)
  ---------------------------------------------------
  alpha Z        PSCENC =        47.94900195
  Ewald energy   TEWEN  =     44016.25508261
  -Hartree energ DENC   =    -50978.99520309
  -exchange      EXHF   =         0.00000000
  -V(xc)+E(xc)   XCENC  =       442.03397443
  PAW double counting   =    101829.36884174  -101545.75187172
  entropy T*S    EENTRO =        -0.00000000
  eigenvalues    EBANDS =     -2658.86884804
  atomic energy  EATOM  =      8420.94593319
  ---------------------------------------------------
  free energy    TOTEN  =      -427.06308891 eV

  energy without entropy =     -427.06308891  energy(sigma->0) =     -427.06308891


--------------------------------------------------------------------------------------------------------




--------------------------------------- Iteration      1(  19)  ---------------------------------------


    POTLOK:  cpu time    4.2825: real time    4.3127
    SETDIJ:  cpu time    0.0563: real time    0.0565
    TRIAL :  cpu time    1.1584: real time    1.1697
    CORREC:  cpu time    4.7472: real time    4.7827
    CHARGE:  cpu time    0.1781: real time    0.1799
    --------------------------------------------
      LOOP:  cpu time   10.4407: real time   10.5302

 eigenvalue-minimisations  :     0
 total energy-change (2. order) :-0.4340967E-04  (-0.1760151E-04)
 number of electron     216.0000000 magnetization 
 augmentation part       -0.3996226 magnetization 

 Free energy of the ion-electron system (eV)
  ---------------------------------------------------
  alpha Z        PSCENC =        47.94900195
  Ewald energy   TEWEN  =     44016.25508261
  -Hartree energ DENC   =    -50978.99141041
  -exchange      EXHF   =         0.00000000
  -V(xc)+E(xc)   XCENC  =       442.03348387
  PAW double counting   =    101841.89294158  -101558.27522776
  entropy T*S    EENTRO =        -0.00000000
  eigenvalues    EBANDS =     -2658.87293736
  atomic energy  EATOM  =      8420.94593319
  ---------------------------------------------------
  free energy    TOTEN  =      -427.06313232 eV

  energy without entropy =     -427.06313232  energy(sigma->0) =     -427.06313232


--------------------------------------------------------------------------------------------------------




--------------------------------------- Iteration      1(  20)  ---------------------------------------


    POTLOK:  cpu time    4.2824: real time    4.3124
    SETDIJ:  cpu time    0.0565: real time    0.0567
    TRIAL :  cpu time    1.1621: real time    1.1730
    CORREC:  cpu time    4.7684: real time    4.8059
    CHARGE:  cpu time    0.1797: real time    0.1815
    --------------------------------------------
      LOOP:  cpu time   10.5159: real time   10.6088

 eigenvalue-minimisations  :     0
 total energy-change (2. order) :-0.1717343E-04  (-0.8098553E-05)
 number of electron     216.0000000 magnetization 
 augmentation part       -0.3996522 magnetization 

 Free energy of the ion-electron system (eV)
  ---------------------------------------------------
  alpha Z        PSCENC =        47.94900195
  Ewald energy   TEWEN  =     44016.25508261
  -Hartree energ DENC   =    -50979.01164758
  -exchange      EXHF   =         0.00000000
  -V(xc)+E(xc)   XCENC  =       442.03421695
  PAW double counting   =    101853.94036749  -101570.32261912
  entropy T*S    EENTRO =        -0.00000000
  eigenvalues    EBANDS =     -2658.85348498
  atomic energy  EATOM  =      8420.94593319
  ---------------------------------------------------
  free energy    TOTEN  =      -427.06314949 eV

  energy without entropy =     -427.06314949  energy(sigma->0) =     -427.06314949


--------------------------------------------------------------------------------------------------------




--------------------------------------- Iteration      1(  21)  ---------------------------------------


    POTLOK:  cpu time    4.2911: real time    4.3220
    SETDIJ:  cpu time    0.0564: real time    0.0566
    TRIAL :  cpu time    1.1613: real time    1.1725
    CORREC:  cpu time    4.7663: real time    4.8074
    CHARGE:  cpu time    0.1784: real time    0.1802
    --------------------------------------------
      LOOP:  cpu time   10.4896: real time   10.5779

 eigenvalue-minimisations  :     0
 total energy-change (2. order) :-0.7942654E-05  (-0.3920852E-05)
 number of electron     216.0000000 magnetization 
 augmentation part       -0.3996369 magnetization 

 Free energy of the ion-electron system (eV)
  ---------------------------------------------------
  alpha Z        PSCENC =        47.94900195
  Ewald energy   TEWEN  =     44016.25508261
  -Hartree energ DENC   =    -50978.98461877
  -exchange      EXHF   =         0.00000000
  -V(xc)+E(xc)   XCENC  =       442.03325804
  PAW double counting   =    101858.67240613  -101575.05469525
  entropy T*S    EENTRO =        -0.00000000
  eigenvalues    EBANDS =     -2658.87952534
  atomic energy  EATOM  =      8420.94593319
  ---------------------------------------------------
  free energy    TOTEN  =      -427.06315744 eV

  energy without entropy =     -427.06315744  energy(sigma->0) =     -427.06315744


--------------------------------------------------------------------------------------------------------




--------------------------------------- Iteration      1(  22)  ---------------------------------------


    POTLOK:  cpu time    4.2911: real time    4.3246
    SETDIJ:  cpu time    0.0563: real time    0.0565
    TRIAL :  cpu time    1.1603: real time    1.1721
    CORREC:  cpu time    4.7599: real time    4.7986
    CHARGE:  cpu time    0.1790: real time    0.1808
    --------------------------------------------
      LOOP:  cpu time   10.4646: real time   10.5772

 eigenvalue-minimisations  :     0
 total energy-change (2. order) :-0.3906098E-05  (-0.1888248E-05)
 number of electron     216.0000000 magnetization 
 augmentation part       -0.3996196 magnetization 

 Free energy of the ion-electron system (eV)
  ---------------------------------------------------
  alpha Z        PSCENC =        47.94900195
  Ewald energy   TEWEN  =     44016.25508261
  -Hartree energ DENC   =    -50978.97304283
  -exchange      EXHF   =         0.00000000
  -V(xc)+E(xc)   XCENC  =       442.03295667
  PAW double counting   =    101858.43787467  -101574.82031530
  entropy T*S    EENTRO =        -0.00000000
  eigenvalues    EBANDS =     -2658.89065231
  atomic energy  EATOM  =      8420.94593319
  ---------------------------------------------------
  free energy    TOTEN  =      -427.06316134 eV

  energy without entropy =     -427.06316134  energy(sigma->0) =     -427.06316134


--------------------------------------------------------------------------------------------------------




--------------------------------------- Iteration      1(  23)  ---------------------------------------


    POTLOK:  cpu time    4.2884: real time    4.3216
    SETDIJ:  cpu time    0.0563: real time    0.0565
    TRIAL :  cpu time    1.1585: real time    1.1699
    CORREC:  cpu time    4.7463: real time    4.7892
    CHARGE:  cpu time    0.1782: real time    0.1803
    --------------------------------------------
      LOOP:  cpu time   10.4740: real time   10.5663

 eigenvalue-minimisations  :     0
 total energy-change (2. order) :-0.1903201E-05  (-0.7354674E-06)
 number of electron     216.0000000 magnetization 
 augmentation part       -0.3996149 magnetization 

 Free energy of the ion-electron system (eV)
  ---------------------------------------------------
  alpha Z        PSCENC =        47.94900195
  Ewald energy   TEWEN  =     44016.25508261
  -Hartree energ DENC   =    -50978.96866454
  -exchange      EXHF   =         0.00000000
  -V(xc)+E(xc)   XCENC  =       442.03289534
  PAW double counting   =    101857.04156024  -101573.42406825
  entropy T*S    EENTRO =        -0.00000000
  eigenvalues    EBANDS =     -2658.89490380
  atomic energy  EATOM  =      8420.94593319
  ---------------------------------------------------
  free energy    TOTEN  =      -427.06316325 eV

  energy without entropy =     -427.06316325  energy(sigma->0) =     -427.06316325


--------------------------------------------------------------------------------------------------------




--------------------------------------- Iteration      1(  24)  ---------------------------------------


    POTLOK:  cpu time    4.2916: real time    4.3294
    SETDIJ:  cpu time    0.0564: real time    0.0566
    TRIAL :  cpu time    1.1580: real time    1.1700
    CORREC:  cpu time    4.7823: real time    4.8237
    CHARGE:  cpu time    0.1789: real time    0.1807
    --------------------------------------------
      LOOP:  cpu time   10.4871: real time   10.5946

 eigenvalue-minimisations  :     0
 total energy-change (2. order) :-0.7501367E-06  (-0.3072756E-06)
 number of electron     216.0000000 magnetization 
 augmentation part       -0.3996128 magnetization 

 Free energy of the ion-electron system (eV)
  ---------------------------------------------------
  alpha Z        PSCENC =        47.94900195
  Ewald energy   TEWEN  =     44016.25508261
  -Hartree energ DENC   =    -50978.96357353
  -exchange      EXHF   =         0.00000000
  -V(xc)+E(xc)   XCENC  =       442.03282674
  PAW double counting   =    101856.41067490  -101572.79315521
  entropy T*S    EENTRO =        -0.00000000
  eigenvalues    EBANDS =     -2658.89995466
  atomic energy  EATOM  =      8420.94593319
  ---------------------------------------------------
  free energy    TOTEN  =      -427.06316400 eV

  energy without entropy =     -427.06316400  energy(sigma->0) =     -427.06316400


--------------------------------------------------------------------------------------------------------




--------------------------------------- Iteration      1(  25)  ---------------------------------------


    POTLOK:  cpu time    4.2860: real time    4.3152
    SETDIJ:  cpu time    0.0564: real time    0.0566
    TRIAL :  cpu time    1.1593: real time    1.1702
    CORREC:  cpu time    4.7516: real time    4.7866
    CHARGE:  cpu time    0.1784: real time    0.1802
    --------------------------------------------
      LOOP:  cpu time   10.5089: real time   10.5895

 eigenvalue-minimisations  :     0
 total energy-change (2. order) :-0.3148598E-06  (-0.1381967E-06)
 number of electron     216.0000000 magnetization 
 augmentation part       -0.3996114 magnetization 

 Free energy of the ion-electron system (eV)
  ---------------------------------------------------
  alpha Z        PSCENC =        47.94900195
  Ewald energy   TEWEN  =     44016.25508261
  -Hartree energ DENC   =    -50978.96430845
  -exchange      EXHF   =         0.00000000
  -V(xc)+E(xc)   XCENC  =       442.03291283
  PAW double counting   =    101856.22967456  -101572.61213586
  entropy T*S    EENTRO =        -0.00000000
  eigenvalues    EBANDS =     -2658.89932516
  atomic energy  EATOM  =      8420.94593319
  ---------------------------------------------------
  free energy    TOTEN  =      -427.06316431 eV

  energy without entropy =     -427.06316431  energy(sigma->0) =     -427.06316431


--------------------------------------------------------------------------------------------------------




--------------------------------------- Iteration      1(  26)  ---------------------------------------


    POTLOK:  cpu time    4.2853: real time    4.3167
    SETDIJ:  cpu time    0.0565: real time    0.0567
    TRIAL :  cpu time    1.1596: real time    1.1707
    CORREC:  cpu time    4.7915: real time    4.8291
    CHARGE:  cpu time    0.1776: real time    0.1795
    --------------------------------------------
      LOOP:  cpu time   10.5404: real time   10.6338

 eigenvalue-minimisations  :     0
 total energy-change (2. order) :-0.1426815E-06  (-0.6322690E-07)
 number of electron     216.0000000 magnetization 
 augmentation part       -0.3996095 magnetization 

 Free energy of the ion-electron system (eV)
  ---------------------------------------------------
  alpha Z        PSCENC =        47.94900195
  Ewald energy   TEWEN  =     44016.25508261
  -Hartree energ DENC   =    -50978.96556509
  -exchange      EXHF   =         0.00000000
  -V(xc)+E(xc)   XCENC  =       442.03292580
  PAW double counting   =    101856.10419834  -101572.48664419
  entropy T*S    EENTRO =        -0.00000000
  eigenvalues    EBANDS =     -2658.89809706
  atomic energy  EATOM  =      8420.94593319
  ---------------------------------------------------
  free energy    TOTEN  =      -427.06316445 eV

  energy without entropy =     -427.06316445  energy(sigma->0) =     -427.06316445


--------------------------------------------------------------------------------------------------------




--------------------------------------- Iteration      1(  27)  ---------------------------------------


    POTLOK:  cpu time    4.2950: real time    4.3279
    SETDIJ:  cpu time    0.0563: real time    0.0565
    TRIAL :  cpu time    1.1511: real time    1.1640
    CORREC:  cpu time    4.7581: real time    4.7959
    EDDIAG:  cpu time    0.4339: real time    0.4388
    CHARGE:  cpu time    0.1782: real time    0.1799
    --------------------------------------------
      LOOP:  cpu time   10.8968: real time   11.0358

 eigenvalue-minimisations  :     0
 total energy-change (2. order) :-0.6516348E-07  (-0.3225475E-07)
 number of electron     216.0000000 magnetization 
 augmentation part       -0.3996083 magnetization 

 Free energy of the ion-electron system (eV)
  ---------------------------------------------------
  alpha Z        PSCENC =        47.94900195
  Ewald energy   TEWEN  =     44016.25508261
  -Hartree energ DENC   =    -50978.96673399
  -exchange      EXHF   =         0.00000000
  -V(xc)+E(xc)   XCENC  =       442.03294684
  PAW double counting   =    101856.02319274  -101572.40564264
  entropy T*S    EENTRO =        -0.00000000
  eigenvalues    EBANDS =     -2658.89694523
  atomic energy  EATOM  =      8420.94593319
  ---------------------------------------------------
  free energy    TOTEN  =      -427.06316452 eV

  energy without entropy =     -427.06316452  energy(sigma->0) =     -427.06316452


--------------------------------------------------------------------------------------------------------


  average scaling for gradient   0.9263


 average (electrostatic) potential at core
  the test charge radii are     0.5770  0.5955
  (the norm of the test charge is              1.0000)
       1 -86.0197       2 -86.0187       3 -86.0208       4 -86.0224       5 -86.0173
       6 -86.0167       7 -86.0206       8 -86.0183       9 -86.0184      10 -86.0202
[...]
      21 -86.0166      22 -86.0162      23 -86.0234      24 -86.0231      25 -86.0164
      26 -86.0170      27 -86.0187      28 -86.0205      29 -86.0167      30 -86.0165
      31 -86.0216      32 -86.0201      33 -86.0176      34 -86.0170      35 -86.0170
      36 -86.0175      37 -86.0186      38 -86.0193      39 -86.0193      40 -86.0191
      41 -86.0191      42 -86.0197      43 -86.0181      44 -86.0198      45 -86.0165
      46 -86.0169      47 -86.0172      48 -86.0167      49 -86.0190      50 -86.0182
      51 -89.9479      52-120.4644      53-120.4641
 
 
 
 E-fermi :  -4.4165     XC(G=0):  -2.1946     alpha+bet : -1.6890

 Fermi energy:        -4.4164575255

 k-point     1 :       0.0000    0.0000    0.0000
  band No.  band energies     occupation 
      1     -27.6765      2.00000
      2     -26.6922      2.00000
      3     -22.4497      2.00000
      4     -21.5140      2.00000
      5     -21.5138      2.00000
      6     -21.5135      2.00000
      7     -21.5123      2.00000
      8     -21.5117      2.00000
      9     -21.5117      2.00000
     10     -19.6772      2.00000
     11     -19.6770      2.00000
     12     -19.6768      2.00000
     13     -19.6763      2.00000
     14     -19.6762      2.00000
     15     -19.6760      2.00000
     16     -18.7831      2.00000
     17     -18.7829      2.00000
     18     -18.7827      2.00000
     19     -18.7821      2.00000
     20     -18.7818      2.00000
     21     -18.7816      2.00000
     22     -16.6233      2.00000
     23     -16.6230      2.00000
     24     -16.6222      2.00000
     25     -16.6220      2.00000
     26     -16.6214      2.00000
     27     -16.6213      2.00000
     28     -15.6519      2.00000
     29     -15.6519      2.00000
     30     -15.6513      2.00000
     31     -15.6512      2.00000
     32     -15.6506      2.00000
     33     -15.6505      2.00000
     34     -14.3041      2.00000
     35     -14.3040      2.00000
     36     -14.3034      2.00000
     37     -14.3032      2.00000
     38     -14.3031      2.00000
     39     -14.3029      2.00000
     40     -12.5262      2.00000
     41     -11.9317      2.00000
     42     -11.9315      2.00000
     43     -11.9310      2.00000
     44     -11.9310      2.00000
     45     -11.9300      2.00000
     46     -11.9298      2.00000
     47     -11.8445      2.00000
     48     -11.8445      2.00000
     49     -11.8439      2.00000
     50     -11.8438      2.00000
     51     -11.8432      2.00000
     52     -11.8430      2.00000
     53     -11.3842      2.00000
     54     -11.3214      2.00000
     55     -11.3209      2.00000
     56     -10.6308      2.00000
     57     -10.4775      2.00000
     58     -10.4773      2.00000
     59     -10.4759      2.00000
     60     -10.4755      2.00000
     61     -10.4753      2.00000
     62     -10.4753      2.00000
     63      -9.5152      2.00000
     64      -9.5144      2.00000
     65      -9.5135      2.00000
     66      -9.5124      2.00000
     67      -9.5111      2.00000
     68      -9.5111      2.00000
     69      -9.2177      2.00000
     70      -9.2174      2.00000
     71      -9.2170      2.00000
     72      -9.2167      2.00000
     73      -9.2161      2.00000
     74      -9.2160      2.00000
     75      -9.1531      2.00000
     76      -9.1530      2.00000
     77      -9.1527      2.00000
     78      -9.1526      2.00000
     79      -9.1522      2.00000
     80      -9.1513      2.00000
     81      -7.7854      2.00000
     82      -7.7850      2.00000
     83      -7.5716      2.00000
     84      -7.5702      2.00000
     85      -7.5699      2.00000
     86      -7.5694      2.00000
     87      -7.5682      2.00000
     88      -7.5681      2.00000
     89      -7.3824      2.00000
     90      -7.3820      2.00000
     91      -7.3818      2.00000
     92      -7.3817      2.00000
     93      -7.3816      2.00000
     94      -7.3814      2.00000
     95      -6.4848      2.00000
     96      -6.4839      2.00000
     97      -6.4836      2.00000
     98      -6.4833      2.00000
     99      -6.4831      2.00000
    100      -6.4829      2.00000
    101      -6.0956      2.00000
    102      -6.0934      2.00000
    103      -4.4987      2.00000
    104      -4.4987      2.00000
    105      -4.4983      2.00000
    106      -4.4980      2.00000
    107      -4.4965      2.00000
    108      -4.4963      2.00000
    109      -1.7041      0.00000
    110      -1.7039      0.00000
    111      -1.7027      0.00000
    112      -1.7024      0.00000
    113      -1.7022      0.00000
    114      -1.7020      0.00000
    115      -0.3017      0.00000
    116       0.1521      0.00000
    117       0.1527      0.00000
    118       0.1532      0.00000
    119       0.1539      0.00000
    120       0.1540      0.00000
    121       0.1561      0.00000
    122       0.2051      0.00000
    123       0.7276      0.00000
    124       0.9186      0.00000
    125       0.9877      0.00000
    126       1.0960      0.00000
    127       1.1016      0.00000
    128       1.1256      0.00000
    129       1.1439      0.00000
    130       1.1627      0.00000
    131       1.1732      0.00000
    132       1.4324      0.00000
    133       1.7011      0.00000
    134       1.8367      0.00000
    135       1.8878      0.00000
    136       2.0198      0.00000


--------------------------------------------------------------------------------------------------------


 soft charge-density along one line, spin component           1
         0         1         2         3         4         5         6         7         8         9
 total charge-density along one line
 
 pseudopotential strength for first ion, spin component:           1
 12.717  21.400   0.000   0.000   0.000   0.000   0.000   0.000
 21.400  36.010   0.000   0.000   0.000   0.000   0.000   0.000
  0.000   0.000  -3.220  -0.000   0.000  -5.771  -0.000   0.000
  0.000   0.000  -0.000  -3.224  -0.000  -0.000  -5.779  -0.000
  0.000   0.000   0.000  -0.000  -3.220   0.000  -0.000  -5.771
  0.000   0.000  -5.771  -0.000   0.000 -10.322  -0.000   0.000
  0.000   0.000  -0.000  -5.779  -0.000  -0.000 -10.335  -0.000
  0.000   0.000   0.000  -0.000  -5.771   0.000  -0.000 -10.322
 total augmentation occupancy for first ion, spin component:           1
  7.415  -2.550  -0.000  -0.002  -0.000   0.000   0.001   0.000
 -2.550   0.916   0.000   0.001   0.000  -0.000  -0.000  -0.000
 -0.000   0.000   6.889  -0.007   0.000  -2.287   0.003  -0.000
 -0.002   0.001  -0.007   2.993  -0.000   0.003  -0.763   0.000
 -0.000   0.000   0.000  -0.000   6.889  -0.000   0.000  -2.287
  0.000  -0.000  -2.287   0.003  -0.000   0.775  -0.001   0.000
  0.001  -0.000   0.003  -0.763   0.000  -0.001   0.202  -0.000
  0.000  -0.000  -0.000   0.000  -2.287   0.000  -0.000   0.775


------------------------ aborting loop because EDIFF is reached ----------------------------------------


    FORLOC:  cpu time    0.0668: real time    0.0673
    FORNL :  cpu time    0.8435: real time    0.8482
    FORCOR:  cpu time    4.3529: real time    4.3844
    OFIELD:  cpu time    0.0015: real time    0.0016

 VOLUME and BASIS-vectors are now :
 -----------------------------------------------------------------------------
  energy-cutoff  :     1000.00
  volume of cell :     3288.85
      direct lattice vectors                 reciprocal lattice vectors
    12.325000000  0.000000000  0.000000000     0.081135903  0.046843835  0.000000000
    -6.162500000 10.673763102  0.000000000     0.000000000  0.093687670  0.000000000
     0.000000000  0.000000000 25.000000000     0.000000000  0.000000000  0.040000000

  length of vectors
    12.325000000 12.325000000 25.000000000     0.093687670  0.093687670  0.040000000


 FORCES acting on ions:
    Electron-Ion                     Ewald-Force                    Non-Local-Force
 -----------------------------------------------------------------------------------------------
   0.317E+01 0.275E+01 0.224E+02   -.317E+01 -.275E+01 -.224E+02   0.720E-02 -.970E-03 0.736E-02
   0.456E+01 0.223E+01 0.252E+02   -.457E+01 -.223E+01 -.252E+02   0.753E-02 -.415E-02 -.526E-02
   0.193E+01 0.520E+01 0.269E+02   -.193E+01 -.520E+01 -.269E+02   -.510E-03 0.160E-01 0.425E-02
   0.252E+01 0.365E+01 0.326E+02   -.253E+01 -.365E+01 -.326E+02   0.152E-01 0.248E-02 -.495E-02
   0.338E+01 0.806E+00 0.228E+02   -.338E+01 -.804E+00 -.228E+02   0.177E-02 -.739E-02 0.116E-02
   0.346E+01 -.694E+00 0.230E+02   -.347E+01 0.697E+00 -.230E+02   -.634E-02 0.234E-02 -.621E-02
   0.481E+01 0.176E+01 0.312E+02   -.482E+01 -.176E+01 -.312E+02   0.175E-01 -.217E-01 -.257E-02
   0.467E+01 -.167E+01 0.324E+02   -.468E+01 0.167E+01 -.324E+02   -.133E-02 -.891E-02 -.659E-02
   -.232E+01 0.470E+01 0.271E+02   0.233E+01 -.471E+01 -.271E+02   -.407E-02 -.897E-02 -.574E-02
   -.344E+01 0.289E+01 0.322E+02   0.345E+01 -.290E+01 -.322E+02   -.318E-01 0.190E-01 0.582E-02
   0.883E+00 -.884E+00 0.207E+02   -.879E+00 0.883E+00 -.207E+02   0.249E-02 -.245E-02 -.222E-02
   0.773E+00 -.649E+00 0.201E+02   -.770E+00 0.648E+00 -.201E+02   -.881E-02 0.410E-02 0.413E-02
   0.183E+01 -.394E+01 0.344E+02   -.184E+01 0.395E+01 -.343E+02   0.324E-01 -.121E-01 0.742E-03
   0.105E+01 -.523E+01 0.281E+02   -.106E+01 0.523E+01 -.281E+02   0.764E-02 0.297E-02 -.170E-01
   -.306E+01 0.188E+01 0.222E+02   0.306E+01 -.188E+01 -.222E+02   0.720E-02 -.346E-02 0.378E-02
   -.414E+01 0.123E+01 0.234E+02   0.414E+01 -.123E+01 -.234E+02   -.429E-02 0.726E-02 -.801E-02
   -.551E+00 -.217E+00 0.195E+02   0.557E+00 0.214E+00 -.195E+02   -.251E-02 0.116E-02 0.157E-02
   0.251E+00 0.190E+01 0.200E+02   -.248E+00 -.191E+01 -.200E+02   -.446E-02 0.268E-02 0.926E-02
   -.801E+00 -.495E+01 0.250E+02   0.798E+00 0.495E+01 -.250E+02   0.866E-02 -.413E-02 0.126E-02
   -.433E+00 -.284E+01 0.212E+02   0.428E+00 0.285E+01 -.212E+02   0.203E-02 -.281E-02 -.111E-02
   0.456E+01 -.201E+01 0.263E+02   -.456E+01 0.202E+01 -.263E+02   0.108E-02 -.451E-02 -.210E-01
   0.308E+01 -.254E+01 0.238E+02   -.308E+01 0.254E+01 -.238E+02   -.642E-02 0.518E-02 -.647E-02
   -.884E+00 0.166E+01 0.362E+02   0.883E+00 -.166E+01 -.362E+02   -.126E-01 0.127E-01 0.130E-01
   -.119E+01 -.261E+01 0.358E+02   0.119E+01 0.261E+01 -.358E+02   0.136E-01 -.182E-01 0.669E-03
   0.164E+01 -.641E+00 0.208E+02   -.163E+01 0.639E+00 -.208E+02   0.224E-02 -.205E-02 -.583E-02
   0.382E+00 0.143E+01 0.208E+02   -.379E+00 -.143E+01 -.208E+02   -.712E-02 0.461E-02 0.338E-02
   -.524E+01 0.720E+00 0.282E+02   0.525E+01 -.725E+00 -.282E+02   0.665E-02 0.103E-01 -.243E-02
   -.502E+01 -.199E+01 0.271E+02   0.503E+01 0.199E+01 -.271E+02   -.134E-01 0.106E-01 0.359E-02
   0.181E+01 -.363E+01 0.243E+02   -.181E+01 0.363E+01 -.243E+02   0.718E-02 0.119E-02 -.103E-01
   0.157E+00 -.155E+01 0.215E+02   -.160E+00 0.155E+01 -.215E+02   -.374E-02 0.247E-02 -.493E-02
   -.368E+01 -.383E+01 0.299E+02   0.368E+01 0.383E+01 -.299E+02   -.153E-01 -.101E-01 -.532E-02
   -.254E+01 -.470E+01 0.254E+02   0.254E+01 0.471E+01 -.254E+02   0.699E-03 -.479E-02 0.554E-02
   0.215E+00 0.862E+00 0.200E+02   -.217E+00 -.862E+00 -.200E+02   0.689E-02 -.544E-02 0.570E-02
   0.556E+00 0.839E+00 0.206E+02   -.559E+00 -.838E+00 -.206E+02   -.155E-02 0.397E-02 -.296E-02
   -.214E+01 0.348E+00 0.214E+02   0.214E+01 -.350E+00 -.214E+02   0.373E-02 -.187E-02 0.351E-02
   -.189E+01 -.810E+00 0.211E+02   0.190E+01 0.808E+00 -.211E+02   -.625E-02 0.344E-02 0.207E-02
   -.366E+01 -.191E+01 0.225E+02   0.367E+01 0.191E+01 -.225E+02   -.466E-02 0.143E-02 0.349E-02
   -.235E+01 -.187E+01 0.209E+02   0.235E+01 0.187E+01 -.209E+02   -.605E-02 0.143E-02 0.952E-02
   -.214E+01 -.274E+01 0.216E+02   0.214E+01 0.275E+01 -.216E+02   -.466E-02 -.887E-03 0.629E-02
   -.325E+00 -.713E+00 0.202E+02   0.325E+00 0.714E+00 -.202E+02   0.234E-02 -.104E-03 0.808E-02
   0.802E+00 0.200E+01 0.204E+02   -.802E+00 -.200E+01 -.204E+02   -.438E-02 0.324E-02 0.781E-02
   0.247E+01 0.385E+01 0.229E+02   -.247E+01 -.385E+01 -.229E+02   0.138E-02 0.879E-03 0.100E-01
   0.227E+00 0.337E+01 0.213E+02   -.222E+00 -.337E+01 -.213E+02   -.244E-02 0.315E-02 0.161E-02
   -.635E-01 0.522E+01 0.252E+02   0.684E-01 -.522E+01 -.252E+02   -.111E-01 0.494E-02 0.637E-02
   -.635E+00 0.122E+01 0.213E+02   0.638E+00 -.122E+01 -.213E+02   0.336E-02 -.264E-02 -.139E-02
   -.245E+01 0.302E+01 0.231E+02   0.246E+01 -.302E+01 -.231E+02   -.861E-02 0.177E-02 -.471E-02
   -.560E+00 -.143E+01 0.207E+02   0.557E+00 0.143E+01 -.207E+02   0.820E-02 -.201E-02 0.405E-02
   -.129E+01 0.482E+00 0.201E+02   0.129E+01 -.481E+00 -.201E+02   -.233E-02 0.292E-02 -.504E-02
   0.136E+00 -.891E+00 0.201E+02   -.138E+00 0.892E+00 -.201E+02   0.555E-02 -.371E-02 0.591E-02
   0.141E+01 0.101E+01 0.201E+02   -.141E+01 -.101E+01 -.201E+02   0.207E-02 0.122E-02 0.316E-02
   0.168E-01 0.578E-02 -.302E+03   -.195E-01 -.308E-02 0.303E+03   -.304E-02 0.202E-02 -.567E-02
   -.229E+03 0.156E+03 -.467E+03   0.279E+03 -.190E+03 0.470E+03   -.512E+02 0.348E+02 -.344E+01
   0.229E+03 -.156E+03 -.445E+03   -.279E+03 0.190E+03 0.442E+03   0.512E+02 -.348E+02 0.308E+01
 -----------------------------------------------------------------------------------------------
   -.570E-02 0.126E-01 0.353E+00   0.171E-12 -.142E-12 0.512E-12   0.564E-02 -.129E-01 -.354E+00
 
 
 POSITION                                       TOTAL-FORCE (eV/Angst)
 -----------------------------------------------------------------------------------
     11.98348      0.00342      0.01417         0.002975     -0.001425     -0.001004
     -0.34154      1.42665      0.01100        -0.001517     -0.000034     -0.003110
      2.12355      0.00315      0.01249        -0.001533      0.009500     -0.005853
      2.12326      1.42653      0.00641         0.012138      0.000750     -0.006964
     10.75099      2.13819      0.01213         0.000172     -0.005293     -0.000006
     -1.57382      3.56123      0.01110        -0.008452      0.004935     -0.001377
      0.89078      2.13854      0.00548         0.008386     -0.018160      0.003019
      0.89099      3.56147      0.00181        -0.012888     -0.001789      0.012272
      4.58864      0.00346      0.01135         0.004219     -0.016569     -0.003191
      4.58894      1.42623      0.00646        -0.021841      0.012198      0.014560
      9.51854      4.27281      0.01369         0.006761     -0.003240      0.000240
     -2.80632      5.69591      0.01434        -0.006289      0.003307      0.000784
      2.12300      4.27302      0.00000         0.023406     -0.004064      0.021146
      2.12335      5.69594      0.00581        -0.001123      0.009932     -0.002250
      7.05344      0.00333      0.01399         0.009030     -0.005082     -0.000356
      7.05353      1.42635      0.01368        -0.001400      0.004575     -0.003611
      8.28610      6.40752      0.01601         0.003265     -0.001559     -0.000735
     -4.03885      7.83070      0.01636        -0.002004      0.000872     -0.000130
      3.35586      6.40753      0.01007         0.004865      0.000627     -0.001206
      3.35599      7.83072      0.01320        -0.003433      0.000374     -0.000543
     -0.34146      4.27290      0.00723        -0.002239     -0.001066     -0.004211
     -0.34138      5.69591      0.00946        -0.008893      0.006158     -0.001030
      3.35624      2.13791      0.00222        -0.012738      0.011151      0.017672
      3.35573      3.56155      0.00139         0.013055     -0.014760      0.010055
     -1.57395      6.40758      0.01311         0.005756     -0.004073     -0.000539
     -1.57385      7.83068      0.01438        -0.004599      0.003688      0.000072
      5.82093      2.13784      0.01033         0.016946      0.004796     -0.002569
      5.82114      3.56097      0.01156        -0.005516      0.007912     -0.003360
      0.89092      6.40755      0.00907         0.004136      0.002216     -0.002113
      0.89106      7.83068      0.01235        -0.006945      0.003581      0.000409
      4.58871      4.27293      0.00850        -0.011667     -0.005886     -0.009859
      4.58852      5.69606      0.01149         0.001866     -0.000238     -0.003684
      9.51845      0.00337      0.01490         0.004548     -0.004570      0.000185
      9.51855      1.42644      0.01438        -0.005096      0.005623     -0.000267
      8.28593      2.13803      0.01453         0.006398     -0.003521      0.000610
      8.28613      3.56115      0.01464        -0.004113      0.002011      0.000002
      7.05356      4.27269      0.01457         0.003285     -0.001044     -0.000489
      7.05362      5.69588      0.01553        -0.002315      0.001419     -0.000109
      5.82112      6.40755      0.01489        -0.002552      0.001750      0.000007
      5.82102      7.83073      0.01579         0.002620      0.000439     -0.000290
      7.05363      8.54227      0.01631        -0.004532      0.000957      0.001090
     -5.27149      9.96549      0.01495        -0.000345     -0.002312     -0.002032
     -2.80638      8.54234      0.01558         0.003415     -0.001773     -0.001086
     -2.80627      9.96553      0.01362        -0.006003     -0.000360     -0.003660
     -0.34149      8.54239      0.01378         0.005811     -0.004627      0.000266
     -0.34138      9.96550      0.01354        -0.005534     -0.000092     -0.001140
      2.12343      8.54232      0.01336         0.005636     -0.001484      0.000786
      2.12354      9.96544      0.01469        -0.005468      0.003927     -0.001808
      4.58846      8.54235      0.01505         0.003552     -0.002786      0.000976
      4.58853      9.96550      0.01517        -0.003164      0.003367      0.000213
      3.04930      2.68154      5.61231        -0.005669      0.004673      0.025859
      4.02070      2.02068      5.67673        -0.589797      0.400780     -0.058097
      2.07767      3.34267      5.55286         0.595422     -0.405709      0.016453
 -----------------------------------------------------------------------------------
    total drift:                               -0.000061     -0.000314     -0.001149


--------------------------------------------------------------------------------------------------------



  FREE ENERGIE OF THE ION-ELECTRON SYSTEM (eV)
  ---------------------------------------------------
  free  energy   TOTEN  =      -427.06316452 eV

  energy  without entropy=     -427.06316452  energy(sigma->0) =     -427.06316452
 


--------------------------------------------------------------------------------------------------------


    POTLOK:  cpu time    4.3492: real time    4.3807


--------------------------------------------------------------------------------------------------------


 writing wavefunctions
     LOOP+:  cpu time  288.7882: real time  291.6609
    4ORBIT:  cpu time    0.0000: real time    0.0000

 total amount of memory used by VASP MPI-rank0   100580. kBytes
=======================================================================

   base      :      30000. kBytes
   nonl-proj :       8229. kBytes
   fftplans  :      18352. kBytes
   grid      :      30208. kBytes
   one-center:          6. kBytes
   wavefun   :      13785. kBytes
 
  
  
 General timing and accounting informations for this job:
 ========================================================
  
                  Total CPU time used (sec):      332.478
                            User time (sec):      306.703
                          System time (sec):       25.775
                         Elapsed time (sec):      336.609
  
                   Maximum memory used (kb):      775868.
                   Average memory used (kb):          N/A
  
                          Minor page faults:       424028
                          Major page faults:          108
                 Voluntary context switches:         3814
