 vasp.6.2.1 16May21 (build Nov 06 2021 14:46:37) complex                        
  
 executed on             LinuxIFC date 2025.04.16  19:13:22
 running on  112 total cores
 distrk:  each k-point on  112 cores,    1 groups
 distr:  one band on NCORE=  28 cores,    4 groups


--------------------------------------------------------------------------------------------------------


 INCAR:
   ALGO = Conjugate
   NPAR = 4
   ISMEAR = 0
   SIGMA = 0.01
   PREC = Accurate
   EDIFF = 1E-7
   ENCUT = 1000
   ISIF = 0
   GGA = MK
   LUSE_VDW = .TRUE.
   PARAM1 = 0.1234
   PARAM2 = 0.711357
   ZAB_VDW = -1.8867
   AGGAC = 0.0000
   LASPH = .TRUE.

 POTCAR:    PAW_PBE C_h 06Feb2004                 
 POTCAR:    PAW_PBE O_h 06Feb2004                 
 -----------------------------------------------------------------------------
|                                                                             |
|           W    W    AA    RRRRR   N    N  II  N    N   GGGG   !!!           |
|           W    W   A  A   R    R  NN   N  II  NN   N  G    G  !!!           |
|           W    W  A    A  R    R  N N  N  II  N N  N  G       !!!           |
|           W WW W  AAAAAA  RRRRR   N  N N  II  N  N N  G  GGG   !            |
|           WW  WW  A    A  R   R   N   NN  II  N   NN  G    G                |
|           W    W  A    A  R    R  N    N  II  N    N   GGGG   !!!           |
|                                                                             |
|     For optimal performance we recommend to set                             |
|       NCORE = 2 up to number-of-cores-per-socket                            |
|     NCORE specifies how many cores store one orbital (NPAR=cpu/NCORE).      |
|     This setting can greatly improve the performance of VASP for DFT.       |
|     The default, NCORE=1 might be grossly inefficient on modern             |
|     multi-core architectures or massively parallel machines. Do your        |
|     own testing! More info at https://www.vasp.at/wiki/index.php/NCORE      |
|     Unfortunately you need to use the default for GW and RPA                |
|     calculations (for HF NCORE is supported but not extensively tested      |
|     yet).                                                                   |
|                                                                             |
 -----------------------------------------------------------------------------

 -----------------------------------------------------------------------------
|                                                                             |
|               ----> ADVICE to this user running VASP <----                  |
|                                                                             |
|     You have switched on vdW-DFT.                                           |
|     This routine was written and supplied by Jiri Klimes. We recommend      |
|     that you carefully read and cite the following publications:            |
|       J. Klimes, D.R. Bowler, A. Michelides                                 |
|          J. Phys.: Cond Matt. 22 022201 (2010)                              |
|       J. Klimes, D.R. Bowler, A. Michelides                                 |
|          Phys. Rev. B. 83, 195131 (2011)                                    |
|     and references therein.                                                 |
|                                                                             |
 -----------------------------------------------------------------------------

 POTCAR:    PAW_PBE C_h 06Feb2004                 
   VRHFIN =C: s2p2                                                                                  
   LEXCH  = PE                                                                                      
   EATOM  =   147.1560 eV,   10.8157 Ry                                                             
                                                                                                    
   TITEL  = PAW_PBE C_h 06Feb2004                                                                   
   LULTRA =        F    use ultrasoft PP ?                                                          
   IUNSCR =        1    unscreen: 0-lin 1-nonlin 2-no                                               
   RPACOR =    0.800    partial core radius                                                         
   POMASS =   12.011; ZVAL   =    4.000    mass and valenz                                          
   RCORE  =    1.100    outmost cutoff radius                                                       
   RWIGS  =    1.630; RWIGS  =    0.863    wigner-seitz radius (au A)                               
   ENMAX  =  700.000; ENMIN  =  500.000 eV                                                          
   ICORE  =        2    local potential                                                             
   LCOR   =        T    correct aug charges                                                         
   LPAW   =        T    paw PP                                                                      
   EAUG   =  946.768                                                                                
   DEXC   =    0.000                                                                                
   RMAX   =    1.128    core radius for proj-oper                                                   
   RAUG   =    1.300    factor for augmentation sphere                                              
   RDEP   =    1.162    radius for radial grids                                                     
   RDEPT  =    1.088    core radius for aug-charge                                                  
                                                                                                    
   Atomic configuration                                                                             
    4 entries                                                                                       
     n  l   j            E        occ.                                                              
     1  0  0.50      -273.3789   2.0000                                                             
     2  0  0.50       -13.7508   2.0000                                                             
     2  1  0.50        -5.2854   2.0000                                                             
     3  2  1.50        -5.4423   0.0000                                                             
   Description                                                                                      
     l       E           TYP  RCUT    TYP  RCUT                                                     
     0    -13.7508458     23  1.100                                                                 
     0     -8.2022199     23  1.100                                                                 
     1     -5.2854383     23  1.100                                                                 
     1      1.1560700     23  1.100                                                                 
     2     -5.4423304      7  1.100                                                                 
  local pseudopotential read in
  partial core-charges read in
  partial kinetic energy density read in
  atomic valenz-charges read in
  non local Contribution for L=           0  read in
    real space projection operators read in
  non local Contribution for L=           0  read in
    real space projection operators read in
  non local Contribution for L=           1  read in
    real space projection operators read in
  non local Contribution for L=           1  read in
    real space projection operators read in
    PAW grid and wavefunctions read in
 
   number of l-projection  operators is LMAX  =           4
   number of lm-projection operators is LMMAX =           8
 
 POTCAR:    PAW_PBE O_h 06Feb2004                 
   VRHFIN =O: s2p4                                                                                  
   LEXCH  = PE                                                                                      
   EATOM  =   432.3788 eV,   31.7789 Ry                                                             
                                                                                                    
   TITEL  = PAW_PBE O_h 06Feb2004                                                                   
   LULTRA =        F    use ultrasoft PP ?                                                          
   IUNSCR =        1    unscreen: 0-lin 1-nonlin 2-no                                               
   RPACOR =    0.800    partial core radius                                                         
   POMASS =   16.000; ZVAL   =    6.000    mass and valenz                                          
   RCORE  =    1.100    outmost cutoff radius                                                       
   RWIGS  =    1.400; RWIGS  =    0.741    wigner-seitz radius (au A)                               
   ENMAX  =  700.000; ENMIN  =  500.000 eV                                                          
   ICORE  =        2    local potential                                                             
   LCOR   =        T    correct aug charges                                                         
   LPAW   =        T    paw PP                                                                      
   EAUG   =  888.804                                                                                
   DEXC   =    0.000                                                                                
   RMAX   =    1.128    core radius for proj-oper                                                   
   RAUG   =    1.300    factor for augmentation sphere                                              
   RDEP   =    1.125    radius for radial grids                                                     
   RDEPT  =    1.088    core radius for aug-charge                                                  
                                                                                                    
   Atomic configuration                                                                             
    4 entries                                                                                       
     n  l   j            E        occ.                                                              
     1  0  0.50      -514.6923   2.0000                                                             
     2  0  0.50       -23.9615   2.0000                                                             
     2  1  0.50        -9.0305   4.0000                                                             
     3  2  1.50        -9.5241   0.0000                                                             
   Description                                                                                      
     l       E           TYP  RCUT    TYP  RCUT                                                     
     0    -23.9615319     23  1.100                                                                 
     0    -25.3221145     23  1.100                                                                 
     1     -9.0304911     23  1.100                                                                 
     1     -5.4802209     23  1.100                                                                 
     2     -9.5240782      7  1.100                                                                 
  local pseudopotential read in
  partial core-charges read in
  partial kinetic energy density read in
  atomic valenz-charges read in
  non local Contribution for L=           0  read in
    real space projection operators read in
  non local Contribution for L=           0  read in
    real space projection operators read in
  non local Contribution for L=           1  read in
    real space projection operators read in
  non local Contribution for L=           1  read in
    real space projection operators read in
    PAW grid and wavefunctions read in
 
   number of l-projection  operators is LMAX  =           4
   number of lm-projection operators is LMMAX =           8
 
 -----------------------------------------------------------------------------
|                                                                             |
|               ----> ADVICE to this user running VASP <----                  |
|                                                                             |
|     You have a (more or less) 'large supercell' and for larger cells it     |
|     might be more efficient to use real-space projection operators.         |
|     Therefore, try LREAL= Auto in the INCAR file.                           |
|     Mind: For very accurate calculation, you might also keep the            |
|     reciprocal projection scheme (i.e. LREAL=.FALSE.).                      |
|                                                                             |
 -----------------------------------------------------------------------------

 -----------------------------------------------------------------------------
|                                                                             |
|               ----> ADVICE to this user running VASP <----                  |
|                                                                             |
|     You enforced a specific xc type in the INCAR file but a different       |
|     type was found in the POTCAR file.                                      |
|     I HOPE YOU KNOW WHAT YOU ARE DOING!                                     |
|                                                                             |
 -----------------------------------------------------------------------------

  PAW_PBE C_h 06Feb2004                 :
 energy of atom  1       EATOM= -147.1560
 kinetic energy error for atom=    0.0031 (will be added to EATOM!!)
  PAW_PBE O_h 06Feb2004                 :
 energy of atom  2       EATOM= -432.3788
 kinetic energy error for atom=    0.0171 (will be added to EATOM!!)
 
 
 POSCAR:  C  O
  positions in cartesian coordinates
  No initial velocities read in
 exchange correlation table for  LEXCH =       43
   RHO(1)=    0.500       N(1)  =     2000
   RHO(2)=  100.500       N(2)  =     4000
 


--------------------------------------------------------------------------------------------------------


 ion  position               nearest neighbor table
   1  0.972  0.000  0.001-  50 1.42   2 1.42  42 1.42
   2  0.039  0.134  0.000-   5 1.42   7 1.42   1 1.42
   3  0.172  0.000  0.000-  42 1.42  44 1.42   4 1.42
   4  0.239  0.134  0.000-   7 1.42   3 1.42  23 1.42
   5  0.972  0.200  0.000-   6 1.42   2 1.42  34 1.42
   6  0.039  0.334  0.000-   5 1.42  21 1.42  11 1.42
   7  0.172  0.200  0.000-   8 1.42   2 1.42   4 1.42
   8  0.239  0.334  0.000-  13 1.42   7 1.42  21 1.42
   9  0.372  0.000  0.000-  10 1.42  44 1.42  46 1.42
  10  0.439  0.134  0.000-  27 1.42   9 1.42  23 1.42
  11  0.972  0.400  0.001-  12 1.42  36 1.42   6 1.42
  12  0.039  0.534  0.001-  25 1.42  11 1.42  17 1.42
  13  0.372  0.400  0.000-   8 1.42  14 1.42  24 1.42
  14  0.439  0.534  0.000-  13 1.42  29 1.42  19 1.42
  15  0.572  0.000  0.001-  46 1.42  16 1.42  48 1.42
  16  0.639  0.134  0.001-  15 1.42  35 1.42  27 1.42
  17  0.972  0.600  0.001-  38 1.42  18 1.42  12 1.42
  18  0.039  0.734  0.001-  43 1.42  41 1.42  17 1.42
  19  0.572  0.600  0.000-  14 1.42  20 1.42  32 1.42
  20  0.639  0.734  0.001-  49 1.42  19 1.42  47 1.42
  21  0.172  0.400  0.000-  22 1.42   8 1.42   6 1.42
  22  0.239  0.534  0.000-  21 1.42  29 1.42  25 1.42
  23  0.372  0.200  0.000-  10 1.42   4 1.42  24 1.42
  24  0.439  0.334  0.000-  13 1.42  31 1.42  23 1.42
  25  0.172  0.600  0.001-  26 1.42  12 1.42  22 1.42
  26  0.239  0.734  0.001-  25 1.42  45 1.42  43 1.42
  27  0.572  0.200  0.000-  10 1.42  28 1.42  16 1.42
  28  0.639  0.334  0.000-  27 1.42  37 1.42  31 1.42
  29  0.372  0.600  0.000-  22 1.42  14 1.42  30 1.42
  30  0.439  0.734  0.000-  47 1.42  29 1.42  45 1.42
  31  0.572  0.400  0.000-  32 1.42  28 1.42  24 1.42
  32  0.639  0.534  0.000-  31 1.42  39 1.42  19 1.42
  33  0.772  0.000  0.001-  34 1.42  48 1.42  50 1.42
  34  0.839  0.134  0.001-  33 1.42   5 1.42  35 1.42
  35  0.772  0.200  0.001-  36 1.42  16 1.42  34 1.42
  36  0.839  0.334  0.001-  35 1.42  11 1.42  37 1.42
  37  0.772  0.400  0.001-  28 1.42  38 1.42  36 1.42
  38  0.839  0.534  0.001-  17 1.42  37 1.42  39 1.42
  39  0.772  0.600  0.001-  40 1.42  38 1.42  32 1.42
  40  0.839  0.734  0.001-  39 1.42  49 1.42  41 1.42
  41  0.972  0.800  0.001-  18 1.42  42 1.42  40 1.42
  42  0.039  0.934  0.001-   3 1.42  41 1.42   1 1.42
  43  0.172  0.800  0.001-  18 1.42  44 1.42  26 1.42
  44  0.239  0.934  0.001-   9 1.42  43 1.42   3 1.42
  45  0.372  0.800  0.001-  26 1.42  46 1.42  30 1.42
  46  0.439  0.934  0.001-  15 1.42  45 1.42   9 1.42
  47  0.572  0.800  0.001-  30 1.42  48 1.42  20 1.42
  48  0.639  0.934  0.001-  47 1.42  33 1.42  15 1.42
  49  0.772  0.800  0.001-  50 1.42  20 1.42  40 1.42
  50  0.839  0.934  0.001-  49 1.42   1 1.42  33 1.42
  51  0.373  0.251  0.252-  52 1.18  53 1.18
  52  0.421  0.189  0.255-  51 1.18
  53  0.325  0.313  0.250-  51 1.18
 
  LATTYP: Found a hexagonal cell.
 ALAT       =    12.3250000000
 C/A-ratio  =     2.0283975659
  
  Lattice vectors:
  
 A1 = (  12.3250000000,   0.0000000000,   0.0000000000)
 A2 = (  -6.1625000000,  10.6737631016,   0.0000000000)
 A3 = (   0.0000000000,   0.0000000000,  25.0000000000)


Analysis of symmetry for initial positions (statically):
=====================================================================
 Subroutine PRICEL returns:
 Original cell was already a primitive cell.
 

 Routine SETGRP: Setting up the symmetry group for a 
 hexagonal supercell.


 Subroutine GETGRP returns: Found  1 space group operations
 (whereof  1 operations were pure point group operations)
 out of a pool of 24 trial point group operations.


The static configuration has the point symmetry C_1 .


Analysis of symmetry for dynamics (positions and initial velocities):
=====================================================================
 Subroutine PRICEL returns:
 Original cell was already a primitive cell.
 

 Routine SETGRP: Setting up the symmetry group for a 
 hexagonal supercell.


 Subroutine GETGRP returns: Found  1 space group operations
 (whereof  1 operations were pure point group operations)
 out of a pool of 24 trial point group operations.


The dynamic configuration has the point symmetry C_1 .


 Subroutine INISYM returns: Found  1 space group operations
 (whereof  1 operations are pure point group operations),
 and found     1 'primitive' translations


----------------------------------------------------------------------------------------

                                     Primitive cell                                     

  volume of cell :    3288.8533

  direct lattice vectors                    reciprocal lattice vectors
    12.325000000  0.000000000  0.000000000     0.081135903  0.046843835  0.000000000
    -6.162500000 10.673763102  0.000000000     0.000000000  0.093687670  0.000000000
     0.000000000  0.000000000 25.000000000     0.000000000  0.000000000  0.040000000

  length of vectors
    12.325000000 12.325000000 25.000000000     0.093687670  0.093687670  0.040000000

  position of ions in fractional coordinates (direct lattice)
     0.972450841  0.000320818  0.000566711
     0.039118382  0.133659505  0.000440173
     0.172443627  0.000295449  0.000499628
     0.239096278  0.133647917  0.000256468
     0.972452058  0.200322012  0.000485219
     0.039128360  0.333643771  0.000444150
     0.172451764  0.200354552  0.000219167
     0.239124359  0.333665720  0.000072260
     0.372465565  0.000324403  0.000453913
     0.439137473  0.133619939  0.000258338
     0.972449824  0.400309362  0.000547611
     0.039124981  0.533636789  0.000573410
     0.372416176  0.400329481  0.000000000
     0.439099602  0.533638981  0.000232414
     0.572443676  0.000312125  0.000559580
     0.639110207  0.133631751  0.000547275
     0.972452703  0.600305653  0.000640289
     0.039124495  0.733640359  0.000654513
     0.572433471  0.600306242  0.000402895
     0.639111888  0.733641879  0.000527905
     0.172454630  0.400318228  0.000289045
     0.239120185  0.533636548  0.000378509
     0.372459750  0.200295993  0.000088997
     0.439107096  0.333673419  0.000055762
     0.172452155  0.600311506  0.000524340
     0.239123371  0.733638574  0.000575129
     0.572431082  0.200289171  0.000413296
     0.639112773  0.333618630  0.000462376
     0.372439808  0.600308022  0.000362844
     0.439116090  0.733637858  0.000494190
     0.572469358  0.400320504  0.000339918
     0.639119408  0.533650873  0.000459610
     0.772445723  0.000315427  0.000596161
     0.839116277  0.133640203  0.000575306
     0.772440513  0.200307432  0.000581033
     0.839120241  0.333635728  0.000585467
     0.772446320  0.400298367  0.000582978
     0.839118980  0.533633964  0.000621100
     0.772456143  0.600308173  0.000595712
     0.839115033  0.733643180  0.000631512
     0.972455313  0.800305582  0.000652233
     0.039114714  0.933643289  0.000598051
     0.172457971  0.800312211  0.000623372
     0.239134551  0.933647193  0.000544850
     0.372451396  0.800316674  0.000551399
     0.439124489  0.933644769  0.000541430
     0.572441101  0.800310054  0.000534535
     0.639115067  0.933638985  0.000587644
     0.772445098  0.800313187  0.000602062
     0.839116614  0.933644338  0.000606830
     0.373021009  0.251226878  0.251984210
     0.420879805  0.189313152  0.254561084
     0.325156981  0.313167186  0.249606015

  ion indices of the primitive-cell ions
   primitive index   ion index
                 1           1
                 2           2
                 3           3
                 4           4
                 5           5
                 6           6
                 7           7
                 8           8
                 9           9
                10          10
                11          11
                12          12
                13          13
                14          14
                15          15
                16          16
                17          17
                18          18
                19          19
                20          20
                21          21
                22          22
                23          23
                24          24
                25          25
                26          26
                27          27
                28          28
                29          29
                30          30
                31          31
                32          32
                33          33
                34          34
                35          35
                36          36
                37          37
                38          38
                39          39
                40          40
                41          41
                42          42
                43          43
                44          44
                45          45
                46          46
                47          47
                48          48
                49          49
                50          50
                51          51
                52          52
                53          53

----------------------------------------------------------------------------------------

 
 
 KPOINTS: auto                                    

Automatic generation of k-mesh.
 Grid dimensions read from file:
 generate k-points for:    1    1    1

 Generating k-lattice:

  Cartesian coordinates                     Fractional coordinates (reciprocal lattice)
     0.081135903  0.046843835  0.000000000     1.000000000 -0.000000000  0.000000000
     0.000000000  0.093687670  0.000000000     0.000000000  1.000000000  0.000000000
     0.000000000  0.000000000  0.040000000     0.000000000  0.000000000  1.000000000

  Length of vectors
     0.093687670  0.093687670  0.040000000

  Shift w.r.t. Gamma in fractional coordinates (k-lattice)
     0.000000000  0.000000000  0.000000000

 
 Subroutine IBZKPT returns following result:
 ===========================================
 
 Found      1 irreducible k-points:
 
 Following reciprocal coordinates:
            Coordinates               Weight
  0.000000  0.000000  0.000000      1.000000
 
 Following cartesian coordinates:
            Coordinates               Weight
  0.000000  0.000000  0.000000      1.000000
 


--------------------------------------------------------------------------------------------------------




 Dimension of arrays:
   k-points           NKPTS =      1   k-points in BZ     NKDIM =      1   number of bands    NBANDS=    136
   number of dos      NEDOS =    301   number of ions     NIONS =     53
   non local maximal  LDIM  =      4   non local SUM 2l+1 LMDIM =      8
   total plane-waves  NPLWV = ******
   max r-space proj   IRMAX =      1   max aug-charges    IRDMAX=  10008
   dimension x,y,z NGX =   128 NGY =  128 NGZ =  270
   dimension x,y,z NGXF=   256 NGYF=  256 NGZF=  540
   support grid    NGXF=   256 NGYF=  256 NGZF=  540
   ions per type =              51   2
   NGX,Y,Z   is equivalent  to a cutoff of  17.27, 17.27, 17.95 a.u.
   NGXF,Y,Z  is equivalent  to a cutoff of  34.53, 34.53, 35.91 a.u.

 SYSTEM =  unknown system                          
 POSCAR =   C  O                                   

 Startparameter for this run:
   NWRITE =      2    write-flag & timer
   PREC   = accura    normal or accurate (medium, high low for compatibility)
   ISTART =      0    job   : 0-new  1-cont  2-samecut
   ICHARG =      2    charge: 1-file 2-atom 10-const
   ISPIN  =      1    spin polarized calculation?
   LNONCOLLINEAR =      F non collinear calculations
   LSORBIT =      F    spin-orbit coupling
   INIWAV =      1    electr: 0-lowe 1-rand  2-diag
   LASPH  =      T    aspherical Exc in radial PAW
 Electronic Relaxation 1
   ENCUT  = 1000.0 eV  73.50 Ry    8.57 a.u.  31.78 31.78 64.46*2*pi/ulx,y,z
   ENINI  = 1000.0     initial cutoff
   ENAUG  =  946.8 eV  augmentation charge cutoff
   NELM   =     60;   NELMIN=  2; NELMDL= -5     # of ELM steps 
   EDIFF  = 0.1E-06   stopping-criterion for ELM
   LREAL  =      F    real-space projection
   NLSPLINE    = F    spline interpolate recip. space projectors
   LCOMPAT=      F    compatible to vasp.4.4
   GGA_COMPAT  = T    GGA compatible to vasp.4.4-vasp.4.6
   LMAXPAW     = -100 max onsite density
   LMAXMIX     =    2 max onsite mixed and CHGCAR
   VOSKOWN=      0    Vosko Wilk Nusair interpolation
   ROPT   =    0.00000   0.00000
 Ionic relaxation
   EDIFFG = 0.1E-05   stopping-criterion for IOM
   NSW    =      0    number of steps for IOM
   NBLOCK =      1;   KBLOCK =      1    inner block; outer block 
   IBRION =     -1    ionic relax: 0-MD 1-quasi-New 2-CG
   NFREE  =      0    steps in history (QN), initial steepest desc. (CG)
   ISIF   =      0    stress and relaxation
   IWAVPR =     10    prediction:  0-non 1-charg 2-wave 3-comb
   ISYM   =      2    0-nonsym 1-usesym 2-fastsym
   LCORR  =      T    Harris-Foulkes like correction to forces

   POTIM  = 0.5000    time-step for ionic-motion
   TEIN   =    0.0    initial temperature
   TEBEG  =    0.0;   TEEND  =   0.0 temperature during run
   SMASS  =  -3.00    Nose mass-parameter (am)
   estimated Nose-frequenzy (Omega)   =  0.10E-29 period in steps = 0.13E+47 mass=  -0.347E-26a.u.
   SCALEE = 1.0000    scale energy and forces
   NPACO  =    256;   APACO  = 16.0  distance and # of slots for P.C.
   PSTRESS=    0.0 pullay stress

  Mass of Ions in am
   POMASS =  12.01 16.00
  Ionic Valenz
   ZVAL   =   4.00  6.00
  Atomic Wigner-Seitz radii
   RWIGS  =  -1.00 -1.00
  virtual crystal weights 
   VCA    =   1.00  1.00
   NELECT =     216.0000    total number of electrons
   NUPDOWN=      -1.0000    fix difference up-down

 DOS related values:
   EMIN   =  10.00;   EMAX   =-10.00  energy-range for DOS
   EFERMI =   0.00
   ISMEAR =     0;   SIGMA  =   0.01  broadening in eV -4-tet -1-fermi 0-gaus

 Electronic relaxation 2 (details)
   IALGO  =     58    algorithm
   LDIAG  =      T    sub-space diagonalisation (order eigenvalues)
   LSUBROT=      F    optimize rotation matrix (better conditioning)
   TURBO    =      0    0=normal 1=particle mesh
   IRESTART =      0    0=no restart 2=restart with 2 vectors
   NREBOOT  =      0    no. of reboots
   NMIN     =      0    reboot dimension
   EREF     =   0.00    reference energy to select bands
   IMIX   =      4    mixing-type and parameters
     AMIX     =   0.40;   BMIX     =  1.00
     AMIX_MAG =   1.60;   BMIX_MAG =  1.00
     AMIN     =   0.10
     WC   =   100.;   INIMIX=   1;  MIXPRE=   1;  MAXMIX= -45

 Intra band minimization:
   WEIMIN = 0.0000     energy-eigenvalue tresh-hold
   EBREAK =  0.18E-09  absolut break condition
   DEPER  =   0.30     relativ break condition  

   TIME   =   0.40     timestep for ELM

  volume/ion in A,a.u.               =      62.05       418.76
  Fermi-wavevector in a.u.,A,eV,Ry     =   0.660508  1.248179  5.935820  0.436270
  Thomas-Fermi vector in A             =   1.732977
 
 Write flags
   LWAVE        =      T    write WAVECAR
   LDOWNSAMPLE  =      F    k-point downsampling of WAVECAR
   LCHARG       =      T    write CHGCAR
   LVTOT        =      F    write LOCPOT, total local potential
   LVHAR        =      F    write LOCPOT, Hartree potential only
   LELF         =      F    write electronic localiz. function (ELF)
   LORBIT       =      0    0 simple, 1 ext, 2 COOP (PROOUT), +10 PAW based schemes


 Dipole corrections
   LMONO  =      F    monopole corrections only (constant potential shift)
   LDIPOL =      F    correct potential (dipole corrections)
   IDIPOL =      0    1-x, 2-y, 3-z, 4-all directions 
   EPSILON=  1.0000000 bulk dielectric constant

 Exchange correlation treatment:
   GGA     =    MK    GGA type
   LEXCH   =    43    internal setting for exchange type
   VOSKOWN=      0    Vosko Wilk Nusair interpolation
   LHFCALC =     F    Hartree Fock is set to
   LHFONE  =     F    Hartree Fock one center treatment
   AEXX    =    0.0000 exact exchange contribution

 vdW DFT:
   LUSE_VDW   =     T    switch on vdW DFT
   Zab_VDW    =******    correlation parameter
   PARAM1     =0.1234
   PARAM2     =0.7114
   PARAM3     =0.0000
   -- rVV10 --
   BPARAM     = 6.3000
   CPARAM     = 0.0093

 Linear response parameters
   LEPSILON=     F    determine dielectric tensor
   LRPA    =     F    only Hartree local field effects (RPA)
   LNABLA  =     F    use nabla operator in PAW spheres
   LVEL    =     F    velocity operator in full k-point grid
   LINTERFAST=   F  fast interpolation
   KINTER  =     0    interpolate to denser k-point grid
   CSHIFT  =0.1000    complex shift for real part using Kramers Kronig
   OMEGAMAX=  -1.0    maximum frequency
   DEG_THRESHOLD= 0.2000000E-02 threshold for treating states as degnerate
   RTIME   =   -0.100 relaxation time in fs
  (WPLASMAI=    0.000 imaginary part of plasma frequency in eV, 0.658/RTIME)
   DFIELD  = 0.0000000 0.0000000 0.0000000 field for delta impulse in time
 
 Orbital magnetization related:
   ORBITALMAG=     F  switch on orbital magnetization
   LCHIMAG   =     F  perturbation theory with respect to B field
   DQ        =  0.001000  dq finite difference perturbation B field
   LLRAUG    =     F  two centre corrections for induced B field



--------------------------------------------------------------------------------------------------------


 Static calculation
 charge density and potential will be updated during run
 non-spin polarized calculation
 Conjugate gradient for all bands (Freysoldt, et al. PRB 79, 241103 (2009))
 preconditioned conjugated gradient                                        
 perform sub-space diagonalisation
    before iterative eigenvector-optimisation
 modified Broyden-mixing scheme, WC =      100.0
 initial mixing is a Kerker type mixing with AMIX =  0.4000 and BMIX =      1.0000
 Hartree-type preconditioning will be used
 using additional bands           28
 reciprocal scheme for non local part
 use partial core corrections
 no Harris-corrections to forces 
 use gradient corrections 
 use of overlap-Matrix (Vanderbilt PP)
 Gauss-broadening in eV      SIGMA  =   0.01


--------------------------------------------------------------------------------------------------------


  energy-cutoff  :     1000.00
  volume of cell :     3288.85
      direct lattice vectors                 reciprocal lattice vectors
    12.325000000  0.000000000  0.000000000     0.081135903  0.046843835  0.000000000
    -6.162500000 10.673763102  0.000000000     0.000000000  0.093687670  0.000000000
     0.000000000  0.000000000 25.000000000     0.000000000  0.000000000  0.040000000

  length of vectors
    12.325000000 12.325000000 25.000000000     0.093687670  0.093687670  0.040000000


 
 k-points in units of 2pi/SCALE and weight: auto                                    
   0.00000000  0.00000000  0.00000000       1.000
 
 k-points in reciprocal lattice and weights: auto                                    
   0.00000000  0.00000000  0.00000000       1.000
 
 position of ions in fractional coordinates (direct lattice) 
   0.97245084  0.00032082  0.00056671
   0.03911838  0.13365950  0.00044017
   0.17244363  0.00029545  0.00049963
   0.23909628  0.13364792  0.00025647
   0.97245206  0.20032201  0.00048522
   0.03912836  0.33364377  0.00044415
   0.17245176  0.20035455  0.00021917
   0.23912436  0.33366572  0.00007226
   0.37246557  0.00032440  0.00045391
   0.43913747  0.13361994  0.00025834
   0.97244982  0.40030936  0.00054761
   0.03912498  0.53363679  0.00057341
   0.37241618  0.40032948  0.00000000
   0.43909960  0.53363898  0.00023241
   0.57244368  0.00031213  0.00055958
   0.63911021  0.13363175  0.00054727
   0.97245270  0.60030565  0.00064029
   0.03912449  0.73364036  0.00065451
   0.57243347  0.60030624  0.00040289
   0.63911189  0.73364188  0.00052791
   0.17245463  0.40031823  0.00028904
   0.23912018  0.53363655  0.00037851
   0.37245975  0.20029599  0.00008900
   0.43910710  0.33367342  0.00005576
   0.17245216  0.60031151  0.00052434
   0.23912337  0.73363857  0.00057513
   0.57243108  0.20028917  0.00041330
   0.63911277  0.33361863  0.00046238
   0.37243981  0.60030802  0.00036284
   0.43911609  0.73363786  0.00049419
   0.57246936  0.40032050  0.00033992
   0.63911941  0.53365087  0.00045961
   0.77244572  0.00031543  0.00059616
   0.83911628  0.13364020  0.00057531
   0.77244051  0.20030743  0.00058103
   0.83912024  0.33363573  0.00058547
   0.77244632  0.40029837  0.00058298
   0.83911898  0.53363396  0.00062110
   0.77245614  0.60030817  0.00059571
   0.83911503  0.73364318  0.00063151
   0.97245531  0.80030558  0.00065223
   0.03911471  0.93364329  0.00059805
   0.17245797  0.80031221  0.00062337
   0.23913455  0.93364719  0.00054485
   0.37245140  0.80031667  0.00055140
   0.43912449  0.93364477  0.00054143
   0.57244110  0.80031005  0.00053453
   0.63911507  0.93363899  0.00058764
   0.77244510  0.80031319  0.00060206
   0.83911661  0.93364434  0.00060683
   0.37302101  0.25122688  0.25198421
   0.42087980  0.18931315  0.25456108
   0.32515698  0.31316719  0.24960602
 
 position of ions in cartesian coordinates  (Angst):
  11.98347958  0.00342433  0.01416777
  -0.34154264  1.42664989  0.01100432
   2.12354700  0.00315355  0.01249070
   2.12325634  1.42652621  0.00641170
  10.75098721  2.13818970  0.01213047
  -1.57382270  3.56123457  0.01110375
   0.89078307  2.13853702  0.00547917
   0.89099273  3.56146885  0.00180651
   4.58863896  0.00346260  0.01134782
   4.58893648  1.42622757  0.00645846
   9.51853763  4.27280730  0.01369027
  -2.80632132  5.69591267  0.01433526
   2.12299894  4.27302204  0.00000000
   2.12335237  5.69593607  0.00581036
   7.05344483  0.00333155  0.01398950
   7.05352764  1.42635365  0.01368187
   8.28609598  6.40752033  0.01600723
  -4.03884931  7.83070339  0.01636283
   3.35585531  6.40752662  0.01007237
   3.35598594  7.83071962  0.01319763
  -0.34145776  4.27290193  0.00722612
  -0.34137895  5.69591010  0.00946273
   3.35624236  2.13791198  0.00222492
   3.35573251  3.56155103  0.00139405
  -1.57394684  6.40758280  0.01310850
  -1.57385216  7.83068434  0.01437823
   5.82093107  2.13783916  0.01033241
   5.82114012  3.56096622  0.01155939
   0.89092245  6.40754561  0.00907111
   0.89106251  7.83067670  0.01235474
   4.58870974  4.27292622  0.00849795
   4.58852320  5.69606300  0.01149026
   9.51844972  0.00336679  0.01490402
   9.51855036  1.42644387  0.01438264
   8.28593477  2.13803408  0.01452582
   8.28612680  3.56114872  0.01463668
   7.05356221  4.27268994  0.01457444
   7.05362213  5.69588251  0.01552751
   5.82112285  6.40754723  0.01489279
   5.82101669  7.83073350  0.01578780
   7.05362858  8.54227219  0.01630582
  -5.27148792  9.96548729  0.01495127
  -2.80637951  8.54234295  0.01558431
  -2.80626749  9.96552896  0.01362126
  -0.34148805  8.54239058  0.01378498
  -0.34137657  9.96550309  0.01353576
   2.12342586  8.54231992  0.01336337
   2.12354296  9.96544135  0.01469111
   4.58845581  8.54235337  0.01505154
   4.58852904  9.96549848  0.01517076
   3.04929830  2.68153618  6.29960525
   4.02070129  2.02068374  6.36402711
   2.07766701  3.34267235  6.24015038
 


--------------------------------------------------------------------------------------------------------


 k-point   1 :   0.0000 0.0000 0.0000  plane waves:  236157

 maximum and minimum number of plane-waves per node :      8440     8428

 maximum number of plane-waves:    236157
 maximum index in each direction: 
   IXMAX=   31   IYMAX=   31   IZMAX=   64
   IXMIN=  -31   IYMIN=  -31   IZMIN=  -64


 parallel 3D FFT for wavefunctions:
    minimum data exchange during FFTs selected (reduces bandwidth)
 parallel 3D FFT for charge:
    minimum data exchange during FFTs selected (reduces bandwidth)


 total amount of memory used by VASP MPI-rank0   100580. kBytes
=======================================================================

   base      :      30000. kBytes
   nonl-proj :       8229. kBytes
   fftplans  :      18352. kBytes
   grid      :      30208. kBytes
   one-center:          6. kBytes
   wavefun   :      13785. kBytes
 
     INWAV:  cpu time    0.0000: real time    0.0000
 Broyden mixing: mesh for mixing (old mesh)
   NGX = 63   NGY = 63   NGZ =129
  (NGX  =256   NGY  =256   NGZ  =540)
  gives a total of 512001 points

 initial charge density was supplied:
 charge density of overlapping atoms calculated
 number of electron     216.0000000 magnetization 
 keeping initial charge density in first step


--------------------------------------------------------------------------------------------------------


 Maximum index for augmentation-charges          471 (set IRDMAX)


--------------------------------------------------------------------------------------------------------


 First call to EWALD:  gamma=   0.119
 Maximum number of real-space cells 4x 4x 2
 Maximum number of reciprocal cells 2x 2x 4

    FEWALD:  cpu time    0.0024: real time    0.0025


--------------------------------------- Iteration      1(   1)  ---------------------------------------


vdW kernel read from vdw_kernel.bindat
  0.0000  0.2424  0.5071  0.7962  1.1119  1.4567  1.8333  2.2446  2.6937  3.1842
  3.7199  4.3049  4.9438  5.6415  6.4036  7.2358  8.1446  9.1372 10.2212 11.4050
 12.6979 14.1099 15.6519 17.3360 19.1751 21.1837 23.3773 25.7729 28.3892 31.2465
 34.3669 37.7748 41.4965 45.5611 50.0000
 
    POTLOK:  cpu time    4.5739: real time    4.6385
    SETDIJ:  cpu time    0.0558: real time    0.0562
    TRIAL :  cpu time    2.0694: real time    2.0909
    CORREC:  cpu time    0.0006: real time    0.0009
    --------------------------------------------
      LOOP:  cpu time    6.7056: real time    6.7991

 eigenvalue-minimisations  :   288
 total energy-change (2. order) : 0.2749090E+04  (-0.1020442E+05)
 number of electron     216.0000000 magnetization 
 augmentation part      216.0000000 magnetization 

 Free energy of the ion-electron system (eV)
  ---------------------------------------------------
  alpha Z        PSCENC =        47.94900195
  Ewald energy   TEWEN  =     43223.40734049
  -Hartree energ DENC   =    -49292.59772567
  -exchange      EXHF   =         0.00000000
  -V(xc)+E(xc)   XCENC  =       412.33094651
  PAW double counting   =      6548.36373666    -6261.59511771
  entropy T*S    EENTRO =        -0.00000000
  eigenvalues    EBANDS =      -349.71452342
  atomic energy  EATOM  =      8420.94593319
  ---------------------------------------------------
  free energy    TOTEN  =      2749.08959200 eV

  energy without entropy =     2749.08959200  energy(sigma->0) =     2749.08959200


--------------------------------------------------------------------------------------------------------




--------------------------------------- Iteration      1(   2)  ---------------------------------------


    TRIAL :  cpu time    2.9024: real time    2.9291
    CORREC:  cpu time    0.0001: real time    0.0001
    --------------------------------------------
      LOOP:  cpu time    2.9499: real time    2.9801

 eigenvalue-minimisations  :   448
 total energy-change (2. order) :-0.2318110E+04  (-0.2169859E+04)
 number of electron     216.0000000 magnetization 
 augmentation part      216.0000000 magnetization 

 Free energy of the ion-electron system (eV)
  ---------------------------------------------------
  alpha Z        PSCENC =        47.94900195
  Ewald energy   TEWEN  =     43223.40734049
  -Hartree energ DENC   =    -49292.59772567
  -exchange      EXHF   =         0.00000000
  -V(xc)+E(xc)   XCENC  =       412.33094651
  PAW double counting   =      6548.36373666    -6261.59511771
  entropy T*S    EENTRO =        -0.00000000
  eigenvalues    EBANDS =     -2667.82420555
  atomic energy  EATOM  =      8420.94593319
  ---------------------------------------------------
  free energy    TOTEN  =       430.97990988 eV

  energy without entropy =      430.97990988  energy(sigma->0) =      430.97990988


--------------------------------------------------------------------------------------------------------




--------------------------------------- Iteration      1(   3)  ---------------------------------------


    TRIAL :  cpu time    2.3342: real time    2.3548
    CORREC:  cpu time    0.0001: real time    0.0001
    --------------------------------------------
      LOOP:  cpu time    2.3545: real time    2.3867

 eigenvalue-minimisations  :   344
 total energy-change (2. order) :-0.8119520E+03  (-0.7966362E+03)
 number of electron     216.0000000 magnetization 
 augmentation part      216.0000000 magnetization 

 Free energy of the ion-electron system (eV)
  ---------------------------------------------------
  alpha Z        PSCENC =        47.94900195
  Ewald energy   TEWEN  =     43223.40734049
  -Hartree energ DENC   =    -49292.59772567
  -exchange      EXHF   =         0.00000000
  -V(xc)+E(xc)   XCENC  =       412.33094651
  PAW double counting   =      6548.36373666    -6261.59511771
  entropy T*S    EENTRO =        -0.00000000
  eigenvalues    EBANDS =     -3479.77619670
  atomic energy  EATOM  =      8420.94593319
  ---------------------------------------------------
  free energy    TOTEN  =      -380.97208128 eV

  energy without entropy =     -380.97208128  energy(sigma->0) =     -380.97208128


--------------------------------------------------------------------------------------------------------




--------------------------------------- Iteration      1(   4)  ---------------------------------------


    TRIAL :  cpu time    2.2917: real time    2.3118
    CORREC:  cpu time    0.0001: real time    0.0001
    --------------------------------------------
      LOOP:  cpu time    2.3473: real time    2.3680

 eigenvalue-minimisations  :   336
 total energy-change (2. order) :-0.7700195E+02  (-0.7592124E+02)
 number of electron     216.0000000 magnetization 
 augmentation part      216.0000000 magnetization 

 Free energy of the ion-electron system (eV)
  ---------------------------------------------------
  alpha Z        PSCENC =        47.94900195
  Ewald energy   TEWEN  =     43223.40734049
  -Hartree energ DENC   =    -49292.59772567
  -exchange      EXHF   =         0.00000000
  -V(xc)+E(xc)   XCENC  =       412.33094651
  PAW double counting   =      6548.36373666    -6261.59511771
  entropy T*S    EENTRO =        -0.00000000
  eigenvalues    EBANDS =     -3556.77814821
  atomic energy  EATOM  =      8420.94593319
  ---------------------------------------------------
  free energy    TOTEN  =      -457.97403279 eV

  energy without entropy =     -457.97403279  energy(sigma->0) =     -457.97403279


--------------------------------------------------------------------------------------------------------




--------------------------------------- Iteration      1(   5)  ---------------------------------------


    TRIAL :  cpu time    2.4064: real time    2.4281
    CORREC:  cpu time    0.0000: real time    0.0000
    CHARGE:  cpu time    0.1820: real time    0.1842
    --------------------------------------------
      LOOP:  cpu time    2.6495: real time    2.6755

 eigenvalue-minimisations  :   352
 total energy-change (2. order) :-0.2340532E+01  (-0.2326436E+01)
 number of electron     216.0000000 magnetization 
 augmentation part       -0.2361421 magnetization 

 Free energy of the ion-electron system (eV)
  ---------------------------------------------------
  alpha Z        PSCENC =        47.94900195
  Ewald energy   TEWEN  =     43223.40734049
  -Hartree energ DENC   =    -49292.59772567
  -exchange      EXHF   =         0.00000000
  -V(xc)+E(xc)   XCENC  =       412.33094651
  PAW double counting   =      6548.36373666    -6261.59511771
  entropy T*S    EENTRO =        -0.00000000
  eigenvalues    EBANDS =     -3559.11868029
  atomic energy  EATOM  =      8420.94593319
  ---------------------------------------------------
  free energy    TOTEN  =      -460.31456487 eV

  energy without entropy =     -460.31456487  energy(sigma->0) =     -460.31456487


--------------------------------------------------------------------------------------------------------




--------------------------------------- Iteration      1(   6)  ---------------------------------------


    POTLOK:  cpu time    4.2663: real time    4.3051
    SETDIJ:  cpu time    0.0545: real time    0.0547
    TRIAL :  cpu time    1.1633: real time    1.1751
    CORREC:  cpu time    4.7623: real time    4.8012
    CHARGE:  cpu time    0.1820: real time    0.1838
    --------------------------------------------
      LOOP:  cpu time   10.4674: real time   10.5601

 eigenvalue-minimisations  :     0
 total energy-change (2. order) : 0.5228744E+02  (-0.1632090E+02)
 number of electron     216.0000000 magnetization 
 augmentation part       -0.3321126 magnetization 

 Free energy of the ion-electron system (eV)
  ---------------------------------------------------
  alpha Z        PSCENC =        47.94900195
  Ewald energy   TEWEN  =     43223.40734049
  -Hartree energ DENC   =    -50732.47328375
  -exchange      EXHF   =         0.00000000
  -V(xc)+E(xc)   XCENC  =       460.03310172
  PAW double counting   =     80573.98952911   -80293.62701113
  entropy T*S    EENTRO =        -0.00000000
  eigenvalues    EBANDS =     -2108.25173955
  atomic energy  EATOM  =      8420.94593319
  ---------------------------------------------------
  free energy    TOTEN  =      -408.02712797 eV

  energy without entropy =     -408.02712797  energy(sigma->0) =     -408.02712797


--------------------------------------------------------------------------------------------------------




--------------------------------------- Iteration      1(   7)  ---------------------------------------


    POTLOK:  cpu time    4.2767: real time    4.3104
    SETDIJ:  cpu time    0.0545: real time    0.0547
    TRIAL :  cpu time    1.1571: real time    1.1687
    CORREC:  cpu time    4.7801: real time    4.8194
    CHARGE:  cpu time    0.1786: real time    0.1804
    --------------------------------------------
      LOOP:  cpu time   10.4856: real time   10.5793

 eigenvalue-minimisations  :     0
 total energy-change (2. order) :-0.1637425E+02  (-0.1840678E+01)
 number of electron     216.0000000 magnetization 
 augmentation part       -0.3762719 magnetization 

 Free energy of the ion-electron system (eV)
  ---------------------------------------------------
  alpha Z        PSCENC =        47.94900195
  Ewald energy   TEWEN  =     43223.40734049
  -Hartree energ DENC   =    -50208.60769410
  -exchange      EXHF   =         0.00000000
  -V(xc)+E(xc)   XCENC  =       442.60057648
  PAW double counting   =     95514.34584818   -95231.25335176
  entropy T*S    EENTRO =        -0.00000000
  eigenvalues    EBANDS =     -2633.78903600
  atomic energy  EATOM  =      8420.94593319
  ---------------------------------------------------
  free energy    TOTEN  =      -424.40138157 eV

  energy without entropy =     -424.40138157  energy(sigma->0) =     -424.40138157


--------------------------------------------------------------------------------------------------------




--------------------------------------- Iteration      1(   8)  ---------------------------------------


    POTLOK:  cpu time    4.2560: real time    4.2918
    SETDIJ:  cpu time    0.0541: real time    0.0546
    TRIAL :  cpu time    1.1567: real time    1.1678
    CORREC:  cpu time    4.7612: real time    4.8184
    CHARGE:  cpu time    0.1812: real time    0.1836
    --------------------------------------------
      LOOP:  cpu time   10.4245: real time   10.5716

 eigenvalue-minimisations  :     0
 total energy-change (2. order) :-0.1839093E+01  (-0.4992173E+00)
 number of electron     216.0000000 magnetization 
 augmentation part       -0.3937527 magnetization 

 Free energy of the ion-electron system (eV)
  ---------------------------------------------------
  alpha Z        PSCENC =        47.94900195
  Ewald energy   TEWEN  =     43223.40734049
  -Hartree energ DENC   =    -50181.13198535
  -exchange      EXHF   =         0.00000000
  -V(xc)+E(xc)   XCENC  =       442.13995059
  PAW double counting   =     99538.88438773   -99255.46467055
  entropy T*S    EENTRO =        -0.00000000
  eigenvalues    EBANDS =     -2662.97043272
  atomic energy  EATOM  =      8420.94593319
  ---------------------------------------------------
  free energy    TOTEN  =      -426.24047466 eV

  energy without entropy =     -426.24047466  energy(sigma->0) =     -426.24047466


--------------------------------------------------------------------------------------------------------




--------------------------------------- Iteration      1(   9)  ---------------------------------------


    POTLOK:  cpu time    4.2798: real time    4.3129
    SETDIJ:  cpu time    0.0543: real time    0.0547
    TRIAL :  cpu time    1.1538: real time    1.1650
    CORREC:  cpu time    4.7794: real time    4.8210
    CHARGE:  cpu time    0.1811: real time    0.1829
    --------------------------------------------
      LOOP:  cpu time   10.4612: real time   10.5717

 eigenvalue-minimisations  :     0
 total energy-change (2. order) :-0.4992445E+00  (-0.1821124E+00)
 number of electron     216.0000000 magnetization 
 augmentation part       -0.4020113 magnetization 

 Free energy of the ion-electron system (eV)
  ---------------------------------------------------
  alpha Z        PSCENC =        47.94900195
  Ewald energy   TEWEN  =     43223.40734049
  -Hartree energ DENC   =    -50196.83352709
  -exchange      EXHF   =         0.00000000
  -V(xc)+E(xc)   XCENC  =       442.33899597
  PAW double counting   =    102289.37053100  -102005.80548049
  entropy T*S    EENTRO =        -0.00000000
  eigenvalues    EBANDS =     -2648.11251423
  atomic energy  EATOM  =      8420.94593319
  ---------------------------------------------------
  free energy    TOTEN  =      -426.73971920 eV

  energy without entropy =     -426.73971920  energy(sigma->0) =     -426.73971920


--------------------------------------------------------------------------------------------------------




--------------------------------------- Iteration      1(  10)  ---------------------------------------


    POTLOK:  cpu time    4.2849: real time    4.3199
    SETDIJ:  cpu time    0.0544: real time    0.0546
    TRIAL :  cpu time    1.1551: real time    1.1681
    CORREC:  cpu time    4.7692: real time    4.8056
    CHARGE:  cpu time    0.1814: real time    0.1832
    --------------------------------------------
      LOOP:  cpu time   10.5122: real time   10.6016

 eigenvalue-minimisations  :     0
 total energy-change (2. order) :-0.1817093E+00  (-0.8347045E-01)
 number of electron     216.0000000 magnetization 
 augmentation part       -0.4019522 magnetization 

 Free energy of the ion-electron system (eV)
  ---------------------------------------------------
  alpha Z        PSCENC =        47.94900195
  Ewald energy   TEWEN  =     43223.40734049
  -Hartree energ DENC   =    -50195.50948295
  -exchange      EXHF   =         0.00000000
  -V(xc)+E(xc)   XCENC  =       442.21022460
  PAW double counting   =    102906.74616548  -102623.08777343
  entropy T*S    EENTRO =        -0.00000000
  eigenvalues    EBANDS =     -2649.58283788
  atomic energy  EATOM  =      8420.94593319
  ---------------------------------------------------
  free energy    TOTEN  =      -426.92142854 eV

  energy without entropy =     -426.92142854  energy(sigma->0) =     -426.92142854


--------------------------------------------------------------------------------------------------------




--------------------------------------- Iteration      1(  11)  ---------------------------------------


    POTLOK:  cpu time    4.2633: real time    4.2997
    SETDIJ:  cpu time    0.0545: real time    0.0547
    TRIAL :  cpu time    1.1629: real time    1.1786
    CORREC:  cpu time    4.7832: real time    4.8202
    CHARGE:  cpu time    0.1831: real time    0.1848
    --------------------------------------------
      LOOP:  cpu time   10.4962: real time   10.5916

 eigenvalue-minimisations  :     0
 total energy-change (2. order) :-0.8313308E-01  (-0.3469972E-01)
 number of electron     216.0000000 magnetization 
 augmentation part       -0.4010191 magnetization 

 Free energy of the ion-electron system (eV)
  ---------------------------------------------------
  alpha Z        PSCENC =        47.94900195
  Ewald energy   TEWEN  =     43223.40734049
  -Hartree energ DENC   =    -50189.12023293
  -exchange      EXHF   =         0.00000000
  -V(xc)+E(xc)   XCENC  =       442.12345249
  PAW double counting   =    102505.38920886  -102221.73334069
  entropy T*S    EENTRO =        -0.00000000
  eigenvalues    EBANDS =     -2655.96592499
  atomic energy  EATOM  =      8420.94593319
  ---------------------------------------------------
  free energy    TOTEN  =      -427.00456162 eV

  energy without entropy =     -427.00456162  energy(sigma->0) =     -427.00456162


--------------------------------------------------------------------------------------------------------




--------------------------------------- Iteration      1(  12)  ---------------------------------------


    POTLOK:  cpu time    4.2806: real time    4.3106
    SETDIJ:  cpu time    0.0542: real time    0.0546
    TRIAL :  cpu time    1.1573: real time    1.1687
    CORREC:  cpu time    4.7371: real time    4.7822
    CHARGE:  cpu time    0.1812: real time    0.1834
    --------------------------------------------
      LOOP:  cpu time   10.4230: real time   10.5477

 eigenvalue-minimisations  :     0
 total energy-change (2. order) :-0.3458481E-01  (-0.1128713E-01)
 number of electron     216.0000000 magnetization 
 augmentation part       -0.4007495 magnetization 

 Free energy of the ion-electron system (eV)
  ---------------------------------------------------
  alpha Z        PSCENC =        47.94900195
  Ewald energy   TEWEN  =     43223.40734049
  -Hartree energ DENC   =    -50185.95800492
  -exchange      EXHF   =         0.00000000
  -V(xc)+E(xc)   XCENC  =       442.04805878
  PAW double counting   =    102130.46970440  -101846.83562254
  entropy T*S    EENTRO =        -0.00000000
  eigenvalues    EBANDS =     -2659.06555778
  atomic energy  EATOM  =      8420.94593319
  ---------------------------------------------------
  free energy    TOTEN  =      -427.03914644 eV

  energy without entropy =     -427.03914644  energy(sigma->0) =     -427.03914644


--------------------------------------------------------------------------------------------------------




--------------------------------------- Iteration      1(  13)  ---------------------------------------


    POTLOK:  cpu time    4.2718: real time    4.3099
    SETDIJ:  cpu time    0.0544: real time    0.0546
    TRIAL :  cpu time    1.1529: real time    1.1669
    CORREC:  cpu time    4.7563: real time    4.8007
    CHARGE:  cpu time    0.1818: real time    0.1839
    --------------------------------------------
      LOOP:  cpu time   10.4717: real time   10.5780

 eigenvalue-minimisations  :     0
 total energy-change (2. order) :-0.1128093E-01  (-0.3302599E-02)
 number of electron     216.0000000 magnetization 
 augmentation part       -0.4001056 magnetization 

 Free energy of the ion-electron system (eV)
  ---------------------------------------------------
  alpha Z        PSCENC =        47.94900195
  Ewald energy   TEWEN  =     43223.40734049
  -Hartree energ DENC   =    -50185.96400728
  -exchange      EXHF   =         0.00000000
  -V(xc)+E(xc)   XCENC  =       442.03969114
  PAW double counting   =    101962.60946876  -101678.98867501
  entropy T*S    EENTRO =        -0.00000000
  eigenvalues    EBANDS =     -2659.04918061
  atomic energy  EATOM  =      8420.94593319
  ---------------------------------------------------
  free energy    TOTEN  =      -427.05042736 eV

  energy without entropy =     -427.05042736  energy(sigma->0) =     -427.05042736


--------------------------------------------------------------------------------------------------------




--------------------------------------- Iteration      1(  14)  ---------------------------------------


    POTLOK:  cpu time    4.2724: real time    4.3126
    SETDIJ:  cpu time    0.0545: real time    0.0547
    TRIAL :  cpu time    1.1528: real time    1.1672
    CORREC:  cpu time    4.7674: real time    4.8134
    CHARGE:  cpu time    0.1820: real time    0.1842
    --------------------------------------------
      LOOP:  cpu time   10.4718: real time   10.5844

 eigenvalue-minimisations  :     0
 total energy-change (2. order) :-0.3305708E-02  (-0.1157988E-02)
 number of electron     216.0000000 magnetization 
 augmentation part       -0.3998147 magnetization 

 Free energy of the ion-electron system (eV)
  ---------------------------------------------------
  alpha Z        PSCENC =        47.94900195
  Ewald energy   TEWEN  =     43223.40734049
  -Hartree energ DENC   =    -50186.02033585
  -exchange      EXHF   =         0.00000000
  -V(xc)+E(xc)   XCENC  =       442.03951361
  PAW double counting   =    101948.66658485  -101665.05089863
  entropy T*S    EENTRO =        -0.00000000
  eigenvalues    EBANDS =     -2658.99087268
  atomic energy  EATOM  =      8420.94593319
  ---------------------------------------------------
  free energy    TOTEN  =      -427.05373307 eV

  energy without entropy =     -427.05373307  energy(sigma->0) =     -427.05373307


--------------------------------------------------------------------------------------------------------




--------------------------------------- Iteration      1(  15)  ---------------------------------------


    POTLOK:  cpu time    4.2614: real time    4.2980
    SETDIJ:  cpu time    0.0544: real time    0.0546
    TRIAL :  cpu time    1.1535: real time    1.1673
    CORREC:  cpu time    4.7475: real time    4.7887
    CHARGE:  cpu time    0.1814: real time    0.1832
    --------------------------------------------
      LOOP:  cpu time   10.4217: real time   10.5297

 eigenvalue-minimisations  :     0
 total energy-change (2. order) :-0.1161332E-02  (-0.5721927E-03)
 number of electron     216.0000000 magnetization 
 augmentation part       -0.3994020 magnetization 

 Free energy of the ion-electron system (eV)
  ---------------------------------------------------
  alpha Z        PSCENC =        47.94900195
  Ewald energy   TEWEN  =     43223.40734049
  -Hartree energ DENC   =    -50185.61779730
  -exchange      EXHF   =         0.00000000
  -V(xc)+E(xc)   XCENC  =       442.01901769
  PAW double counting   =    101945.21186270  -101661.59431528
  entropy T*S    EENTRO =        -0.00000000
  eigenvalues    EBANDS =     -2659.37593785
  atomic energy  EATOM  =      8420.94593319
  ---------------------------------------------------
  free energy    TOTEN  =      -427.05489440 eV

  energy without entropy =     -427.05489440  energy(sigma->0) =     -427.05489440


--------------------------------------------------------------------------------------------------------




--------------------------------------- Iteration      1(  16)  ---------------------------------------


    POTLOK:  cpu time    4.2592: real time    4.2917
    SETDIJ:  cpu time    0.0544: real time    0.0546
    TRIAL :  cpu time    1.1697: real time    1.1814
    CORREC:  cpu time    4.7582: real time    4.7995
    CHARGE:  cpu time    0.1819: real time    0.1836
    --------------------------------------------
      LOOP:  cpu time   10.4819: real time   10.5737

 eigenvalue-minimisations  :     0
 total energy-change (2. order) :-0.5743626E-03  (-0.2993003E-03)
 number of electron     216.0000000 magnetization 
 augmentation part       -0.3992903 magnetization 

 Free energy of the ion-electron system (eV)
  ---------------------------------------------------
  alpha Z        PSCENC =        47.94900195
  Ewald energy   TEWEN  =     43223.40734049
  -Hartree energ DENC   =    -50185.98298845
  -exchange      EXHF   =         0.00000000
  -V(xc)+E(xc)   XCENC  =       442.03293571
  PAW double counting   =    101891.91429387  -101608.29879378
  entropy T*S    EENTRO =        -0.00000000
  eigenvalues    EBANDS =     -2659.02319175
  atomic energy  EATOM  =      8420.94593319
  ---------------------------------------------------
  free energy    TOTEN  =      -427.05546877 eV

  energy without entropy =     -427.05546877  energy(sigma->0) =     -427.05546877


--------------------------------------------------------------------------------------------------------




--------------------------------------- Iteration      1(  17)  ---------------------------------------


    POTLOK:  cpu time    4.3015: real time    4.3355
    SETDIJ:  cpu time    0.0545: real time    0.0547
    TRIAL :  cpu time    1.1589: real time    1.1714
    CORREC:  cpu time    4.7603: real time    4.7989
    CHARGE:  cpu time    0.1808: real time    0.1840
    --------------------------------------------
      LOOP:  cpu time   10.5029: real time   10.5959

 eigenvalue-minimisations  :     0
 total energy-change (2. order) :-0.3001372E-03  (-0.1249433E-03)
 number of electron     216.0000000 magnetization 
 augmentation part       -0.3993504 magnetization 

 Free energy of the ion-electron system (eV)
  ---------------------------------------------------
  alpha Z        PSCENC =        47.94900195
  Ewald energy   TEWEN  =     43223.40734049
  -Hartree energ DENC   =    -50186.13621006
  -exchange      EXHF   =         0.00000000
  -V(xc)+E(xc)   XCENC  =       442.03544708
  PAW double counting   =    101838.52820894  -101554.91206224
  entropy T*S    EENTRO =        -0.00000000
  eigenvalues    EBANDS =     -2658.87342826
  atomic energy  EATOM  =      8420.94593319
  ---------------------------------------------------
  free energy    TOTEN  =      -427.05576890 eV

  energy without entropy =     -427.05576890  energy(sigma->0) =     -427.05576890


--------------------------------------------------------------------------------------------------------




--------------------------------------- Iteration      1(  18)  ---------------------------------------


    POTLOK:  cpu time    4.2595: real time    4.2923
    SETDIJ:  cpu time    0.0546: real time    0.0547
    TRIAL :  cpu time    1.1536: real time    1.1657
    CORREC:  cpu time    4.7524: real time    4.7906
    CHARGE:  cpu time    0.1818: real time    0.1836
    --------------------------------------------
      LOOP:  cpu time   10.4148: real time   10.5272

 eigenvalue-minimisations  :     0
 total energy-change (2. order) :-0.1247373E-03  (-0.4639318E-04)
 number of electron     216.0000000 magnetization 
 augmentation part       -0.3995120 magnetization 

 Free energy of the ion-electron system (eV)
  ---------------------------------------------------
  alpha Z        PSCENC =        47.94900195
  Ewald energy   TEWEN  =     43223.40734049
  -Hartree energ DENC   =    -50186.19881316
  -exchange      EXHF   =         0.00000000
  -V(xc)+E(xc)   XCENC  =       442.03776706
  PAW double counting   =    101830.20205087  -101546.58531398
  entropy T*S    EENTRO =        -0.00000000
  eigenvalues    EBANDS =     -2658.81386007
  atomic energy  EATOM  =      8420.94593319
  ---------------------------------------------------
  free energy    TOTEN  =      -427.05589364 eV

  energy without entropy =     -427.05589364  energy(sigma->0) =     -427.05589364


--------------------------------------------------------------------------------------------------------




--------------------------------------- Iteration      1(  19)  ---------------------------------------


    POTLOK:  cpu time    4.3170: real time    4.3510
    SETDIJ:  cpu time    0.0545: real time    0.0547
    TRIAL :  cpu time    1.1570: real time    1.1687
    CORREC:  cpu time    4.7713: real time    4.8141
    CHARGE:  cpu time    0.1821: real time    0.1839
    --------------------------------------------
      LOOP:  cpu time   10.5146: real time   10.6087

 eigenvalue-minimisations  :     0
 total energy-change (2. order) :-0.4607874E-04  (-0.1778108E-04)
 number of electron     216.0000000 magnetization 
 augmentation part       -0.3995907 magnetization 

 Free energy of the ion-electron system (eV)
  ---------------------------------------------------
  alpha Z        PSCENC =        47.94900195
  Ewald energy   TEWEN  =     43223.40734049
  -Hartree energ DENC   =    -50186.18825260
  -exchange      EXHF   =         0.00000000
  -V(xc)+E(xc)   XCENC  =       442.03674605
  PAW double counting   =    101843.58598818  -101559.96843001
  entropy T*S    EENTRO =        -0.00000000
  eigenvalues    EBANDS =     -2658.82426697
  atomic energy  EATOM  =      8420.94593319
  ---------------------------------------------------
  free energy    TOTEN  =      -427.05593972 eV

  energy without entropy =     -427.05593972  energy(sigma->0) =     -427.05593972


--------------------------------------------------------------------------------------------------------




--------------------------------------- Iteration      1(  20)  ---------------------------------------


    POTLOK:  cpu time    4.2987: real time    4.3325
    SETDIJ:  cpu time    0.0544: real time    0.0546
    TRIAL :  cpu time    1.1548: real time    1.1668
    CORREC:  cpu time    4.7409: real time    4.7790
    CHARGE:  cpu time    0.1817: real time    0.1834
    --------------------------------------------
      LOOP:  cpu time   10.4564: real time   10.5468

 eigenvalue-minimisations  :     0
 total energy-change (2. order) :-0.1761806E-04  (-0.1005827E-04)
 number of electron     216.0000000 magnetization 
 augmentation part       -0.3996219 magnetization 

 Free energy of the ion-electron system (eV)
  ---------------------------------------------------
  alpha Z        PSCENC =        47.94900195
  Ewald energy   TEWEN  =     43223.40734049
  -Hartree energ DENC   =    -50186.20735334
  -exchange      EXHF   =         0.00000000
  -V(xc)+E(xc)   XCENC  =       442.03741821
  PAW double counting   =    101854.71205779  -101571.09444118
  entropy T*S    EENTRO =        -0.00000000
  eigenvalues    EBANDS =     -2658.80591446
  atomic energy  EATOM  =      8420.94593319
  ---------------------------------------------------
  free energy    TOTEN  =      -427.05595734 eV

  energy without entropy =     -427.05595734  energy(sigma->0) =     -427.05595734


--------------------------------------------------------------------------------------------------------




--------------------------------------- Iteration      1(  21)  ---------------------------------------


    POTLOK:  cpu time    4.2810: real time    4.3128
    SETDIJ:  cpu time    0.0545: real time    0.0547
    TRIAL :  cpu time    1.1544: real time    1.1656
    CORREC:  cpu time    4.7526: real time    4.7935
    CHARGE:  cpu time    0.1821: real time    0.1839
    --------------------------------------------
      LOOP:  cpu time   10.4411: real time   10.5569

 eigenvalue-minimisations  :     0
 total energy-change (2. order) :-0.9932977E-05  (-0.5521064E-05)
 number of electron     216.0000000 magnetization 
 augmentation part       -0.3996160 magnetization 

 Free energy of the ion-electron system (eV)
  ---------------------------------------------------
  alpha Z        PSCENC =        47.94900195
  Ewald energy   TEWEN  =     43223.40734049
  -Hartree energ DENC   =    -50186.20279923
  -exchange      EXHF   =         0.00000000
  -V(xc)+E(xc)   XCENC  =       442.03728589
  PAW double counting   =    101861.05348139  -101577.43597366
  entropy T*S    EENTRO =        -0.00000000
  eigenvalues    EBANDS =     -2658.81023729
  atomic energy  EATOM  =      8420.94593319
  ---------------------------------------------------
  free energy    TOTEN  =      -427.05596727 eV

  energy without entropy =     -427.05596727  energy(sigma->0) =     -427.05596727


--------------------------------------------------------------------------------------------------------




--------------------------------------- Iteration      1(  22)  ---------------------------------------


    POTLOK:  cpu time    4.3044: real time    4.3345
    SETDIJ:  cpu time    0.0545: real time    0.0547
    TRIAL :  cpu time    1.1616: real time    1.1729
    CORREC:  cpu time    4.7742: real time    4.8140
    CHARGE:  cpu time    0.1927: real time    0.1972
    --------------------------------------------
      LOOP:  cpu time   10.5330: real time   10.6193

 eigenvalue-minimisations  :     0
 total energy-change (2. order) :-0.5492810E-05  (-0.2400896E-05)
 number of electron     216.0000000 magnetization 
 augmentation part       -0.3995900 magnetization 

 Free energy of the ion-electron system (eV)
  ---------------------------------------------------
  alpha Z        PSCENC =        47.94900195
  Ewald energy   TEWEN  =     43223.40734049
  -Hartree energ DENC   =    -50186.17505548
  -exchange      EXHF   =         0.00000000
  -V(xc)+E(xc)   XCENC  =       442.03618662
  PAW double counting   =    101861.21194751  -101577.59451203
  entropy T*S    EENTRO =        -0.00000000
  eigenvalues    EBANDS =     -2658.83681501
  atomic energy  EATOM  =      8420.94593319
  ---------------------------------------------------
  free energy    TOTEN  =      -427.05597276 eV

  energy without entropy =     -427.05597276  energy(sigma->0) =     -427.05597276


--------------------------------------------------------------------------------------------------------




--------------------------------------- Iteration      1(  23)  ---------------------------------------


    POTLOK:  cpu time    4.2661: real time    4.2979
    SETDIJ:  cpu time    0.0545: real time    0.0546
    TRIAL :  cpu time    1.1536: real time    1.1650
    CORREC:  cpu time    4.7675: real time    4.8043
    CHARGE:  cpu time    0.1814: real time    0.1833
    --------------------------------------------
      LOOP:  cpu time   10.4559: real time   10.5389

 eigenvalue-minimisations  :     0
 total energy-change (2. order) :-0.2414556E-05  (-0.9460907E-06)
 number of electron     216.0000000 magnetization 
 augmentation part       -0.3995898 magnetization 

 Free energy of the ion-electron system (eV)
  ---------------------------------------------------
  alpha Z        PSCENC =        47.94900195
  Ewald energy   TEWEN  =     43223.40734049
  -Hartree energ DENC   =    -50186.18029417
  -exchange      EXHF   =         0.00000000
  -V(xc)+E(xc)   XCENC  =       442.03664810
  PAW double counting   =    101859.35258544  -101575.73533709
  entropy T*S    EENTRO =        -0.00000000
  eigenvalues    EBANDS =     -2658.83185309
  atomic energy  EATOM  =      8420.94593319
  ---------------------------------------------------
  free energy    TOTEN  =      -427.05597518 eV

  energy without entropy =     -427.05597518  energy(sigma->0) =     -427.05597518


--------------------------------------------------------------------------------------------------------




--------------------------------------- Iteration      1(  24)  ---------------------------------------


    POTLOK:  cpu time    4.2673: real time    4.2987
    SETDIJ:  cpu time    0.0545: real time    0.0547
    TRIAL :  cpu time    1.1580: real time    1.1698
    CORREC:  cpu time    4.7468: real time    4.7843
    CHARGE:  cpu time    0.1874: real time    0.1893
    --------------------------------------------
      LOOP:  cpu time   10.4581: real time   10.5442

 eigenvalue-minimisations  :     0
 total energy-change (2. order) :-0.9547948E-06  (-0.4178964E-06)
 number of electron     216.0000000 magnetization 
 augmentation part       -0.3995881 magnetization 

 Free energy of the ion-electron system (eV)
  ---------------------------------------------------
  alpha Z        PSCENC =        47.94900195
  Ewald energy   TEWEN  =     43223.40734049
  -Hartree energ DENC   =    -50186.16929531
  -exchange      EXHF   =         0.00000000
  -V(xc)+E(xc)   XCENC  =       442.03626458
  PAW double counting   =    101858.39585245  -101574.77852845
  entropy T*S    EENTRO =        -0.00000000
  eigenvalues    EBANDS =     -2658.84254504
  atomic energy  EATOM  =      8420.94593319
  ---------------------------------------------------
  free energy    TOTEN  =      -427.05597613 eV

  energy without entropy =     -427.05597613  energy(sigma->0) =     -427.05597613


--------------------------------------------------------------------------------------------------------




--------------------------------------- Iteration      1(  25)  ---------------------------------------


    POTLOK:  cpu time    4.2657: real time    4.2953
    SETDIJ:  cpu time    0.0546: real time    0.0548
    TRIAL :  cpu time    1.1570: real time    1.1719
    CORREC:  cpu time    4.7623: real time    4.8011
    CHARGE:  cpu time    0.1820: real time    0.1838
    --------------------------------------------
      LOOP:  cpu time   10.4574: real time   10.5619

 eigenvalue-minimisations  :     0
 total energy-change (2. order) :-0.4247559E-06  (-0.1738058E-06)
 number of electron     216.0000000 magnetization 
 augmentation part       -0.3995878 magnetization 

 Free energy of the ion-electron system (eV)
  ---------------------------------------------------
  alpha Z        PSCENC =        47.94900195
  Ewald energy   TEWEN  =     43223.40734049
  -Hartree energ DENC   =    -50186.16973191
  -exchange      EXHF   =         0.00000000
  -V(xc)+E(xc)   XCENC  =       442.03641563
  PAW double counting   =    101858.17813851  -101574.56080361
  entropy T*S    EENTRO =        -0.00000000
  eigenvalues    EBANDS =     -2658.84227081
  atomic energy  EATOM  =      8420.94593319
  ---------------------------------------------------
  free energy    TOTEN  =      -427.05597656 eV

  energy without entropy =     -427.05597656  energy(sigma->0) =     -427.05597656


--------------------------------------------------------------------------------------------------------




--------------------------------------- Iteration      1(  26)  ---------------------------------------


    POTLOK:  cpu time    4.2632: real time    4.2946
    SETDIJ:  cpu time    0.0545: real time    0.0547
    TRIAL :  cpu time    1.1517: real time    1.1663
    CORREC:  cpu time    4.7717: real time    4.8087
    CHARGE:  cpu time    0.1818: real time    0.1836
    --------------------------------------------
      LOOP:  cpu time   10.4974: real time   10.6036

 eigenvalue-minimisations  :     0
 total energy-change (2. order) :-0.1777662E-06  (-0.7567150E-07)
 number of electron     216.0000000 magnetization 
 augmentation part       -0.3995872 magnetization 

 Free energy of the ion-electron system (eV)
  ---------------------------------------------------
  alpha Z        PSCENC =        47.94900195
  Ewald energy   TEWEN  =     43223.40734049
  -Hartree energ DENC   =    -50186.17103544
  -exchange      EXHF   =         0.00000000
  -V(xc)+E(xc)   XCENC  =       442.03645328
  PAW double counting   =    101858.13956332  -101574.52221049
  entropy T*S    EENTRO =        -0.00000000
  eigenvalues    EBANDS =     -2658.84102304
  atomic energy  EATOM  =      8420.94593319
  ---------------------------------------------------
  free energy    TOTEN  =      -427.05597673 eV

  energy without entropy =     -427.05597673  energy(sigma->0) =     -427.05597673


--------------------------------------------------------------------------------------------------------




--------------------------------------- Iteration      1(  27)  ---------------------------------------


    POTLOK:  cpu time    4.2601: real time    4.2920
    SETDIJ:  cpu time    0.0544: real time    0.0546
    TRIAL :  cpu time    1.1565: real time    1.1680
    CORREC:  cpu time    4.7680: real time    4.8064
    EDDIAG:  cpu time    0.4356: real time    0.4440
    CHARGE:  cpu time    0.1816: real time    0.1834
    --------------------------------------------
      LOOP:  cpu time   10.9241: real time   11.0214

 eigenvalue-minimisations  :     0
 total energy-change (2. order) :-0.7732888E-07  (-0.3740204E-07)
 number of electron     216.0000000 magnetization 
 augmentation part       -0.3995851 magnetization 

 Free energy of the ion-electron system (eV)
  ---------------------------------------------------
  alpha Z        PSCENC =        47.94900195
  Ewald energy   TEWEN  =     43223.40734049
  -Hartree energ DENC   =    -50186.17118236
  -exchange      EXHF   =         0.00000000
  -V(xc)+E(xc)   XCENC  =       442.03641776
  PAW double counting   =    101858.15018609  -101574.53282357
  entropy T*S    EENTRO =        -0.00000000
  eigenvalues    EBANDS =     -2658.84085037
  atomic energy  EATOM  =      8420.94593319
  ---------------------------------------------------
  free energy    TOTEN  =      -427.05597681 eV

  energy without entropy =     -427.05597681  energy(sigma->0) =     -427.05597681


--------------------------------------------------------------------------------------------------------


  average scaling for gradient   0.9255


 average (electrostatic) potential at core
  the test charge radii are     0.5770  0.5955
  (the norm of the test charge is              1.0000)
       1 -86.0193       2 -86.0185       3 -86.0198       4 -86.0209       5 -86.0174
       6 -86.0171       7 -86.0197       8 -86.0180       9 -86.0182      10 -86.0192
[...]
      21 -86.0170      22 -86.0167      23 -86.0215      24 -86.0214      25 -86.0168
      26 -86.0172      27 -86.0184      28 -86.0197      29 -86.0170      30 -86.0169
      31 -86.0204      32 -86.0194      33 -86.0176      34 -86.0172      35 -86.0173
      36 -86.0176      37 -86.0185      38 -86.0189      39 -86.0189      40 -86.0188
      41 -86.0188      42 -86.0191      43 -86.0181      44 -86.0193      45 -86.0170
      46 -86.0173      47 -86.0173      48 -86.0171      49 -86.0188      50 -86.0182
      51 -89.9462      52-120.4627      53-120.4622
 
 
 
 E-fermi :  -4.4245     XC(G=0):  -2.2035     alpha+bet : -1.6890

 Fermi energy:        -4.4244681398

 k-point     1 :       0.0000    0.0000    0.0000
  band No.  band energies     occupation 
      1     -27.6754      2.00000
      2     -26.6909      2.00000
      3     -22.4495      2.00000
      4     -21.5140      2.00000
      5     -21.5131      2.00000
      6     -21.5129      2.00000
      7     -21.5121      2.00000
      8     -21.5120      2.00000
      9     -21.5118      2.00000
     10     -19.6771      2.00000
     11     -19.6770      2.00000
     12     -19.6767      2.00000
     13     -19.6761      2.00000
     14     -19.6758      2.00000
     15     -19.6756      2.00000
     16     -18.7830      2.00000
     17     -18.7828      2.00000
     18     -18.7825      2.00000
     19     -18.7821      2.00000
     20     -18.7815      2.00000
     21     -18.7813      2.00000
     22     -16.6231      2.00000
     23     -16.6228      2.00000
     24     -16.6219      2.00000
     25     -16.6218      2.00000
     26     -16.6213      2.00000
     27     -16.6213      2.00000
     28     -15.6519      2.00000
     29     -15.6518      2.00000
     30     -15.6510      2.00000
     31     -15.6509      2.00000
     32     -15.6504      2.00000
     33     -15.6503      2.00000
     34     -14.3039      2.00000
     35     -14.3038      2.00000
     36     -14.3032      2.00000
     37     -14.3030      2.00000
     38     -14.3029      2.00000
     39     -14.3028      2.00000
     40     -12.5251      2.00000
     41     -11.9316      2.00000
     42     -11.9313      2.00000
     43     -11.9309      2.00000
     44     -11.9308      2.00000
     45     -11.9298      2.00000
     46     -11.9295      2.00000
     47     -11.8442      2.00000
     48     -11.8442      2.00000
     49     -11.8436      2.00000
     50     -11.8435      2.00000
     51     -11.8431      2.00000
     52     -11.8430      2.00000
     53     -11.3830      2.00000
     54     -11.3200      2.00000
     55     -11.3198      2.00000
     56     -10.6306      2.00000
     57     -10.4774      2.00000
     58     -10.4772      2.00000
     59     -10.4757      2.00000
     60     -10.4753      2.00000
     61     -10.4751      2.00000
     62     -10.4751      2.00000
     63      -9.5139      2.00000
     64      -9.5136      2.00000
     65      -9.5136      2.00000
     66      -9.5123      2.00000
     67      -9.5116      2.00000
     68      -9.5115      2.00000
     69      -9.2175      2.00000
     70      -9.2172      2.00000
     71      -9.2167      2.00000
     72      -9.2165      2.00000
     73      -9.2161      2.00000
     74      -9.2159      2.00000
     75      -9.1531      2.00000
     76      -9.1529      2.00000
     77      -9.1524      2.00000
     78      -9.1523      2.00000
     79      -9.1520      2.00000
     80      -9.1512      2.00000
     81      -7.7840      2.00000
     82      -7.7838      2.00000
     83      -7.5714      2.00000
     84      -7.5699      2.00000
     85      -7.5696      2.00000
     86      -7.5692      2.00000
     87      -7.5681      2.00000
     88      -7.5681      2.00000
     89      -7.3823      2.00000
     90      -7.3818      2.00000
     91      -7.3817      2.00000
     92      -7.3814      2.00000
     93      -7.3813      2.00000
     94      -7.3812      2.00000
     95      -6.4843      2.00000
     96      -6.4838      2.00000
     97      -6.4835      2.00000
     98      -6.4831      2.00000
     99      -6.4830      2.00000
    100      -6.4828      2.00000
    101      -6.0954      2.00000
    102      -6.0932      2.00000
    103      -4.4985      2.00000
    104      -4.4983      2.00000
    105      -4.4978      2.00000
    106      -4.4977      2.00000
    107      -4.4967      2.00000
    108      -4.4965      2.00000
    109      -1.7037      0.00000
    110      -1.7034      0.00000
    111      -1.7027      0.00000
    112      -1.7025      0.00000
    113      -1.7020      0.00000
    114      -1.7018      0.00000
    115      -0.2381      0.00000
    116       0.1528      0.00000
    117       0.1532      0.00000
    118       0.1537      0.00000
    119       0.1540      0.00000
    120       0.1541      0.00000
    121       0.1559      0.00000
    122       0.1763      0.00000
    123       0.7036      0.00000
    124       0.8766      0.00000
    125       1.0170      0.00000
    126       1.1101      0.00000
    127       1.1185      0.00000
    128       1.1444      0.00000
    129       1.1674      0.00000
    130       1.1738      0.00000
    131       1.2933      0.00000
    132       1.4190      0.00000
    133       1.7221      0.00000
    134       1.8390      0.00000
    135       1.8780      0.00000
    136       2.0079      0.00000


--------------------------------------------------------------------------------------------------------


 soft charge-density along one line, spin component           1
         0         1         2         3         4         5         6         7         8         9
 total charge-density along one line
 
 pseudopotential strength for first ion, spin component:           1
 12.717  21.399   0.000   0.000   0.000   0.000   0.000   0.000
 21.399  36.009   0.000   0.000   0.000   0.000   0.000   0.000
  0.000   0.000  -3.220  -0.000   0.000  -5.771  -0.000   0.000
  0.000   0.000  -0.000  -3.224  -0.000  -0.000  -5.779  -0.000
  0.000   0.000   0.000  -0.000  -3.220   0.000  -0.000  -5.771
  0.000   0.000  -5.771  -0.000   0.000 -10.322  -0.000   0.000
  0.000   0.000  -0.000  -5.779  -0.000  -0.000 -10.334  -0.000
  0.000   0.000   0.000  -0.000  -5.771   0.000  -0.000 -10.322
 total augmentation occupancy for first ion, spin component:           1
  7.415  -2.550  -0.000  -0.002  -0.000   0.000   0.001   0.000
 -2.550   0.916   0.000   0.001   0.000  -0.000  -0.000  -0.000
 -0.000   0.000   6.889  -0.007   0.000  -2.287   0.003  -0.000
 -0.002   0.001  -0.007   2.993  -0.000   0.003  -0.763   0.000
 -0.000   0.000   0.000  -0.000   6.889  -0.000   0.000  -2.287
  0.000  -0.000  -2.287   0.003  -0.000   0.775  -0.001   0.000
  0.001  -0.000   0.003  -0.763   0.000  -0.001   0.202  -0.000
  0.000  -0.000  -0.000   0.000  -2.287   0.000  -0.000   0.775


------------------------ aborting loop because EDIFF is reached ----------------------------------------


    FORLOC:  cpu time    0.0676: real time    0.0682
    FORNL :  cpu time    0.8425: real time    0.8481
    FORCOR:  cpu time    4.3611: real time    4.3951
    OFIELD:  cpu time    0.0015: real time    0.0015

 VOLUME and BASIS-vectors are now :
 -----------------------------------------------------------------------------
  energy-cutoff  :     1000.00
  volume of cell :     3288.85
      direct lattice vectors                 reciprocal lattice vectors
    12.325000000  0.000000000  0.000000000     0.081135903  0.046843835  0.000000000
    -6.162500000 10.673763102  0.000000000     0.000000000  0.093687670  0.000000000
     0.000000000  0.000000000 25.000000000     0.000000000  0.000000000  0.040000000

  length of vectors
    12.325000000 12.325000000 25.000000000     0.093687670  0.093687670  0.040000000


 FORCES acting on ions:
    Electron-Ion                     Ewald-Force                    Non-Local-Force
 -----------------------------------------------------------------------------------------------
   0.215E+01 0.187E+01 0.205E+02   -.216E+01 -.187E+01 -.205E+02   0.605E-02 -.824E-03 0.686E-02
   0.304E+01 0.151E+01 0.225E+02   -.305E+01 -.151E+01 -.225E+02   0.548E-02 -.365E-02 -.526E-02
   0.126E+01 0.342E+01 0.235E+02   -.126E+01 -.342E+01 -.235E+02   -.353E-03 0.137E-01 0.180E-02
   0.161E+01 0.234E+01 0.277E+02   -.161E+01 -.234E+01 -.277E+02   0.133E-01 0.150E-02 -.103E-01
   0.230E+01 0.558E+00 0.208E+02   -.230E+01 -.557E+00 -.208E+02   0.810E-03 -.642E-02 0.229E-02
   0.236E+01 -.489E+00 0.210E+02   -.236E+01 0.491E+00 -.210E+02   -.618E-02 0.282E-02 -.446E-02
   0.310E+01 0.115E+01 0.269E+02   -.311E+01 -.115E+01 -.269E+02   0.146E-01 -.203E-01 -.448E-02
   0.304E+01 -.107E+01 0.281E+02   -.305E+01 0.108E+01 -.281E+02   -.408E-02 -.715E-02 -.609E-02
   -.153E+01 0.312E+01 0.238E+02   0.153E+01 -.313E+01 -.238E+02   -.216E-02 -.108E-01 -.500E-02
   -.219E+01 0.185E+01 0.276E+02   0.219E+01 -.185E+01 -.276E+02   -.286E-01 0.168E-01 0.398E-02
   0.607E+00 -.620E+00 0.193E+02   -.603E+00 0.620E+00 -.193E+02   0.308E-02 -.265E-02 -.113E-02
   0.546E+00 -.460E+00 0.188E+02   -.544E+00 0.459E+00 -.188E+02   -.787E-02 0.374E-02 0.498E-02
   0.115E+01 -.252E+01 0.296E+02   -.115E+01 0.252E+01 -.296E+02   0.293E-01 -.977E-02 -.110E-02
   0.682E+00 -.347E+01 0.249E+02   -.688E+00 0.347E+01 -.249E+02   0.577E-02 0.470E-02 -.163E-01
   -.210E+01 0.128E+01 0.203E+02   0.211E+01 -.128E+01 -.203E+02   0.714E-02 -.358E-02 0.561E-02
   -.279E+01 0.827E+00 0.211E+02   0.280E+01 -.829E+00 -.211E+02   -.321E-02 0.631E-02 -.617E-02
   -.386E+00 -.152E+00 0.183E+02   0.391E+00 0.150E+00 -.183E+02   -.152E-02 0.814E-03 0.182E-02
   0.171E+00 0.132E+01 0.187E+02   -.170E+00 -.133E+01 -.187E+02   -.378E-02 0.221E-02 0.929E-02
   -.543E+00 -.332E+01 0.225E+02   0.541E+00 0.333E+01 -.225E+02   0.738E-02 -.302E-02 0.929E-03
   -.304E+00 -.196E+01 0.197E+02   0.300E+00 0.197E+01 -.197E+02   0.112E-02 -.201E-02 -.852E-03
   0.305E+01 -.134E+01 0.235E+02   -.306E+01 0.135E+01 -.235E+02   -.745E-04 -.349E-02 -.185E-01
   0.210E+01 -.172E+01 0.217E+02   -.211E+01 0.172E+01 -.217E+02   -.647E-02 0.510E-02 -.425E-02
   -.567E+00 0.105E+01 0.305E+02   0.565E+00 -.104E+01 -.305E+02   -.112E-01 0.114E-01 0.576E-02
   -.761E+00 -.164E+01 0.303E+02   0.762E+00 0.164E+01 -.303E+02   0.128E-01 -.163E-01 -.594E-02
   0.114E+01 -.435E+00 0.194E+02   -.114E+01 0.433E+00 -.194E+02   0.297E-02 -.235E-02 -.456E-02
   0.282E+00 0.989E+00 0.193E+02   -.281E+00 -.990E+00 -.193E+02   -.620E-02 0.410E-02 0.446E-02
   -.345E+01 0.460E+00 0.246E+02   0.346E+01 -.464E+00 -.246E+02   0.913E-02 0.904E-02 -.207E-02
   -.330E+01 -.131E+01 0.238E+02   0.331E+01 0.131E+01 -.238E+02   -.110E-01 0.971E-02 0.237E-02
   0.122E+01 -.245E+01 0.221E+02   -.122E+01 0.245E+01 -.221E+02   0.591E-02 0.154E-02 -.839E-02
   0.105E+00 -.107E+01 0.200E+02   -.108E+00 0.107E+01 -.200E+02   -.425E-02 0.235E-02 -.360E-02
   -.239E+01 -.246E+01 0.258E+02   0.239E+01 0.246E+01 -.258E+02   -.134E-01 -.893E-02 -.918E-02
   -.169E+01 -.315E+01 0.226E+02   0.169E+01 0.315E+01 -.226E+02   0.704E-03 -.289E-02 0.391E-02
   0.148E+00 0.614E+00 0.187E+02   -.149E+00 -.614E+00 -.187E+02   0.601E-02 -.506E-02 0.635E-02
   0.385E+00 0.587E+00 0.192E+02   -.389E+00 -.586E+00 -.192E+02   -.189E-02 0.434E-02 -.203E-02
   -.146E+01 0.250E+00 0.197E+02   0.146E+01 -.251E+00 -.197E+02   0.377E-02 -.214E-02 0.479E-02
   -.129E+01 -.566E+00 0.196E+02   0.130E+01 0.565E+00 -.196E+02   -.523E-02 0.289E-02 0.299E-02
   -.248E+01 -.131E+01 0.205E+02   0.249E+01 0.130E+01 -.205E+02   -.292E-02 0.121E-02 0.359E-02
   -.162E+01 -.129E+01 0.193E+02   0.162E+01 0.129E+01 -.193E+02   -.507E-02 0.132E-02 0.933E-02
   -.147E+01 -.188E+01 0.198E+02   0.147E+01 0.188E+01 -.198E+02   -.381E-02 -.332E-03 0.566E-02
   -.223E+00 -.499E+00 0.188E+02   0.224E+00 0.499E+00 -.188E+02   0.215E-02 0.222E-03 0.781E-02
   0.552E+00 0.138E+01 0.190E+02   -.552E+00 -.139E+01 -.190E+02   -.419E-02 0.250E-02 0.747E-02
   0.168E+01 0.261E+01 0.207E+02   -.168E+01 -.261E+01 -.207E+02   0.361E-03 -.407E-04 0.896E-02
   0.164E+00 0.231E+01 0.196E+02   -.159E+00 -.231E+01 -.196E+02   -.142E-02 0.206E-02 0.204E-02
   -.406E-01 0.347E+01 0.223E+02   0.435E-01 -.348E+01 -.223E+02   -.953E-02 0.347E-02 0.599E-02
   -.437E+00 0.828E+00 0.197E+02   0.439E+00 -.830E+00 -.197E+02   0.370E-02 -.271E-02 0.349E-04
   -.165E+01 0.204E+01 0.210E+02   0.166E+01 -.204E+01 -.210E+02   -.747E-02 0.119E-02 -.284E-02
   -.405E+00 -.996E+00 0.193E+02   0.404E+00 0.996E+00 -.193E+02   0.725E-02 -.172E-02 0.492E-02
   -.897E+00 0.328E+00 0.188E+02   0.895E+00 -.327E+00 -.188E+02   -.303E-02 0.312E-02 -.402E-02
   0.960E-01 -.620E+00 0.188E+02   -.972E-01 0.620E+00 -.188E+02   0.496E-02 -.347E-02 0.586E-02
   0.982E+00 0.700E+00 0.188E+02   -.986E+00 -.698E+00 -.188E+02   0.104E-02 0.141E-02 0.324E-02
   0.827E-02 0.152E-01 -.272E+03   -.120E-01 -.118E-01 0.272E+03   -.288E-02 0.199E-02 -.327E-02
   -.229E+03 0.156E+03 -.421E+03   0.279E+03 -.190E+03 0.425E+03   -.512E+02 0.348E+02 -.344E+01
   0.229E+03 -.156E+03 -.399E+03   -.279E+03 0.190E+03 0.396E+03   0.512E+02 -.348E+02 0.309E+01
 -----------------------------------------------------------------------------------------------
   -.674E-02 0.133E-01 0.345E+00   0.114E-12 -.568E-13 -.227E-12   0.671E-02 -.134E-01 -.347E+00
 
 
 POSITION                                       TOTAL-FORCE (eV/Angst)
 -----------------------------------------------------------------------------------
     11.98348      0.00342      0.01417         0.003050     -0.001571     -0.001010
     -0.34154      1.42665      0.01100        -0.001119     -0.000007     -0.003262
      2.12355      0.00315      0.01249        -0.001660      0.010231     -0.006151
      2.12326      1.42653      0.00641         0.012918      0.001083     -0.007869
     10.75099      2.13819      0.01213         0.000230     -0.005470     -0.000060
     -1.57382      3.56123      0.01110        -0.008738      0.004816     -0.001393
      0.89078      2.13854      0.00548         0.009054     -0.018717      0.002557
      0.89099      3.56147      0.00181        -0.012383     -0.002116      0.011797
      4.58864      0.00346      0.01135         0.003987     -0.016228     -0.003395
      4.58894      1.42623      0.00646        -0.022892      0.012847      0.013910
      9.51854      4.27281      0.01369         0.006660     -0.003136      0.000218
     -2.80632      5.69591      0.01434        -0.006382      0.003324      0.000741
      2.12300      4.27302      0.00000         0.024395     -0.004613      0.020426
      2.12335      5.69594      0.00581        -0.000886      0.009548     -0.002495
      7.05344      0.00333      0.01399         0.009224     -0.005216     -0.000386
      7.05353      1.42635      0.01368        -0.001496      0.004729     -0.003694
      8.28610      6.40752      0.01601         0.003140     -0.001529     -0.000761
     -4.03885      7.83070      0.01636        -0.002098      0.000838     -0.000138
      3.35586      6.40753      0.01007         0.005213      0.000613     -0.001233
      3.35599      7.83072      0.01320        -0.003357      0.000231     -0.000603
     -0.34146      4.27290      0.00723        -0.002101     -0.001233     -0.004365
     -0.34138      5.69591      0.00946        -0.009058      0.006385     -0.001068
      3.35624      2.13791      0.00222        -0.013286      0.011674      0.016277
      3.35573      3.56155      0.00139         0.013395     -0.015517      0.008812
     -1.57395      6.40758      0.01311         0.005561     -0.004008     -0.000567
     -1.57385      7.83068      0.01438        -0.004692      0.003693      0.000033
      5.82093      2.13784      0.01033         0.016530      0.004963     -0.002828
      5.82114      3.56097      0.01156        -0.005972      0.008299     -0.003539
      0.89092      6.40755      0.00907         0.004317      0.002295     -0.002184
      0.89106      7.83068      0.01235        -0.006900      0.003772      0.000388
      4.58871      4.27293      0.00850        -0.012451     -0.006247     -0.010425
      4.58852      5.69606      0.01149         0.001932     -0.000734     -0.003829
      9.51845      0.00337      0.01490         0.004607     -0.004611      0.000147
      9.51855      1.42644      0.01438        -0.005126      0.005524     -0.000291
      8.28593      2.13803      0.01453         0.006620     -0.003444      0.000599
      8.28613      3.56115      0.01464        -0.004180      0.002101     -0.000027
      7.05356      4.27269      0.01457         0.003011     -0.001077     -0.000564
      7.05362      5.69588      0.01553        -0.002367      0.001480     -0.000107
      5.82112      6.40755      0.01489        -0.002756      0.001669     -0.000023
      5.82102      7.83073      0.01579         0.002659      0.000363     -0.000294
      7.05363      8.54227      0.01631        -0.004590      0.001102      0.001060
     -5.27149      9.96549      0.01495        -0.000094     -0.002185     -0.002098
     -2.80638      8.54234      0.01558         0.003321     -0.001624     -0.001144
     -2.80627      9.96553      0.01362        -0.006449     -0.000271     -0.003735
     -0.34149      8.54239      0.01378         0.005818     -0.004829      0.000250
     -0.34138      9.96550      0.01354        -0.005663     -0.000119     -0.001196
      2.12343      8.54232      0.01336         0.005726     -0.001511      0.000744
      2.12354      9.96544      0.01469        -0.005299      0.003880     -0.001833
      4.58846      8.54235      0.01505         0.003606     -0.002782      0.000972
      4.58853      9.96550      0.01517        -0.002995      0.003372      0.000163
      3.04930      2.68154      6.29961        -0.006501      0.005294      0.030822
      4.02070      2.02068      6.36403        -0.592143      0.402467     -0.056392
      2.07767      3.34267      6.24015         0.598660     -0.407800      0.019044
 -----------------------------------------------------------------------------------
    total drift:                               -0.000022     -0.000113     -0.001373


--------------------------------------------------------------------------------------------------------



  FREE ENERGIE OF THE ION-ELECTRON SYSTEM (eV)
  ---------------------------------------------------
  free  energy   TOTEN  =      -427.05597681 eV

  energy  without entropy=     -427.05597681  energy(sigma->0) =     -427.05597681
 


--------------------------------------------------------------------------------------------------------


    POTLOK:  cpu time    4.3788: real time    4.4162


--------------------------------------------------------------------------------------------------------


 writing wavefunctions
     LOOP+:  cpu time  287.8335: real time  290.6871
    4ORBIT:  cpu time    0.0000: real time    0.0000

 total amount of memory used by VASP MPI-rank0   100580. kBytes
=======================================================================

   base      :      30000. kBytes
   nonl-proj :       8229. kBytes
   fftplans  :      18352. kBytes
   grid      :      30208. kBytes
   one-center:          6. kBytes
   wavefun   :      13785. kBytes
 
  
  
 General timing and accounting informations for this job:
 ========================================================
  
                  Total CPU time used (sec):      331.724
                            User time (sec):      305.812
                          System time (sec):       25.913
                         Elapsed time (sec):      335.781
  
                   Maximum memory used (kb):      784116.
                   Average memory used (kb):          N/A
  
                          Minor page faults:       414258
                          Major page faults:          102
                 Voluntary context switches:         3857
