 vasp.6.2.1 16May21 (build Nov 06 2021 14:46:37) complex                        
  
 executed on             LinuxIFC date 2025.04.16  18:22:20
 running on  112 total cores
 distrk:  each k-point on  112 cores,    1 groups
 distr:  one band on NCORE=  28 cores,    4 groups


--------------------------------------------------------------------------------------------------------


 INCAR:
   ALGO = Conjugate
   NPAR = 4
   ISMEAR = 0
   SIGMA = 0.01
   PREC = Accurate
   EDIFF = 1E-7
   ENCUT = 1000
   ISIF = 0
   GGA = MK
   LUSE_VDW = .TRUE.
   PARAM1 = 0.1234
   PARAM2 = 0.711357
   ZAB_VDW = -1.8867
   AGGAC = 0.0000
   LASPH = .TRUE.

 POTCAR:    PAW_PBE C_h 06Feb2004                 
 POTCAR:    PAW_PBE O_h 06Feb2004                 
 -----------------------------------------------------------------------------
|                                                                             |
|           W    W    AA    RRRRR   N    N  II  N    N   GGGG   !!!           |
|           W    W   A  A   R    R  NN   N  II  NN   N  G    G  !!!           |
|           W    W  A    A  R    R  N N  N  II  N N  N  G       !!!           |
|           W WW W  AAAAAA  RRRRR   N  N N  II  N  N N  G  GGG   !            |
|           WW  WW  A    A  R   R   N   NN  II  N   NN  G    G                |
|           W    W  A    A  R    R  N    N  II  N    N   GGGG   !!!           |
|                                                                             |
|     For optimal performance we recommend to set                             |
|       NCORE = 2 up to number-of-cores-per-socket                            |
|     NCORE specifies how many cores store one orbital (NPAR=cpu/NCORE).      |
|     This setting can greatly improve the performance of VASP for DFT.       |
|     The default, NCORE=1 might be grossly inefficient on modern             |
|     multi-core architectures or massively parallel machines. Do your        |
|     own testing! More info at https://www.vasp.at/wiki/index.php/NCORE      |
|     Unfortunately you need to use the default for GW and RPA                |
|     calculations (for HF NCORE is supported but not extensively tested      |
|     yet).                                                                   |
|                                                                             |
 -----------------------------------------------------------------------------

 -----------------------------------------------------------------------------
|                                                                             |
|               ----> ADVICE to this user running VASP <----                  |
|                                                                             |
|     You have switched on vdW-DFT.                                           |
|     This routine was written and supplied by Jiri Klimes. We recommend      |
|     that you carefully read and cite the following publications:            |
|       J. Klimes, D.R. Bowler, A. Michelides                                 |
|          J. Phys.: Cond Matt. 22 022201 (2010)                              |
|       J. Klimes, D.R. Bowler, A. Michelides                                 |
|          Phys. Rev. B. 83, 195131 (2011)                                    |
|     and references therein.                                                 |
|                                                                             |
 -----------------------------------------------------------------------------

 POTCAR:    PAW_PBE C_h 06Feb2004                 
   VRHFIN =C: s2p2                                                                                  
   LEXCH  = PE                                                                                      
   EATOM  =   147.1560 eV,   10.8157 Ry                                                             
                                                                                                    
   TITEL  = PAW_PBE C_h 06Feb2004                                                                   
   LULTRA =        F    use ultrasoft PP ?                                                          
   IUNSCR =        1    unscreen: 0-lin 1-nonlin 2-no                                               
   RPACOR =    0.800    partial core radius                                                         
   POMASS =   12.011; ZVAL   =    4.000    mass and valenz                                          
   RCORE  =    1.100    outmost cutoff radius                                                       
   RWIGS  =    1.630; RWIGS  =    0.863    wigner-seitz radius (au A)                               
   ENMAX  =  700.000; ENMIN  =  500.000 eV                                                          
   ICORE  =        2    local potential                                                             
   LCOR   =        T    correct aug charges                                                         
   LPAW   =        T    paw PP                                                                      
   EAUG   =  946.768                                                                                
   DEXC   =    0.000                                                                                
   RMAX   =    1.128    core radius for proj-oper                                                   
   RAUG   =    1.300    factor for augmentation sphere                                              
   RDEP   =    1.162    radius for radial grids                                                     
   RDEPT  =    1.088    core radius for aug-charge                                                  
                                                                                                    
   Atomic configuration                                                                             
    4 entries                                                                                       
     n  l   j            E        occ.                                                              
     1  0  0.50      -273.3789   2.0000                                                             
     2  0  0.50       -13.7508   2.0000                                                             
     2  1  0.50        -5.2854   2.0000                                                             
     3  2  1.50        -5.4423   0.0000                                                             
   Description                                                                                      
     l       E           TYP  RCUT    TYP  RCUT                                                     
     0    -13.7508458     23  1.100                                                                 
     0     -8.2022199     23  1.100                                                                 
     1     -5.2854383     23  1.100                                                                 
     1      1.1560700     23  1.100                                                                 
     2     -5.4423304      7  1.100                                                                 
  local pseudopotential read in
  partial core-charges read in
  partial kinetic energy density read in
  atomic valenz-charges read in
  non local Contribution for L=           0  read in
    real space projection operators read in
  non local Contribution for L=           0  read in
    real space projection operators read in
  non local Contribution for L=           1  read in
    real space projection operators read in
  non local Contribution for L=           1  read in
    real space projection operators read in
    PAW grid and wavefunctions read in
 
   number of l-projection  operators is LMAX  =           4
   number of lm-projection operators is LMMAX =           8
 
 POTCAR:    PAW_PBE O_h 06Feb2004                 
   VRHFIN =O: s2p4                                                                                  
   LEXCH  = PE                                                                                      
   EATOM  =   432.3788 eV,   31.7789 Ry                                                             
                                                                                                    
   TITEL  = PAW_PBE O_h 06Feb2004                                                                   
   LULTRA =        F    use ultrasoft PP ?                                                          
   IUNSCR =        1    unscreen: 0-lin 1-nonlin 2-no                                               
   RPACOR =    0.800    partial core radius                                                         
   POMASS =   16.000; ZVAL   =    6.000    mass and valenz                                          
   RCORE  =    1.100    outmost cutoff radius                                                       
   RWIGS  =    1.400; RWIGS  =    0.741    wigner-seitz radius (au A)                               
   ENMAX  =  700.000; ENMIN  =  500.000 eV                                                          
   ICORE  =        2    local potential                                                             
   LCOR   =        T    correct aug charges                                                         
   LPAW   =        T    paw PP                                                                      
   EAUG   =  888.804                                                                                
   DEXC   =    0.000                                                                                
   RMAX   =    1.128    core radius for proj-oper                                                   
   RAUG   =    1.300    factor for augmentation sphere                                              
   RDEP   =    1.125    radius for radial grids                                                     
   RDEPT  =    1.088    core radius for aug-charge                                                  
                                                                                                    
   Atomic configuration                                                                             
    4 entries                                                                                       
     n  l   j            E        occ.                                                              
     1  0  0.50      -514.6923   2.0000                                                             
     2  0  0.50       -23.9615   2.0000                                                             
     2  1  0.50        -9.0305   4.0000                                                             
     3  2  1.50        -9.5241   0.0000                                                             
   Description                                                                                      
     l       E           TYP  RCUT    TYP  RCUT                                                     
     0    -23.9615319     23  1.100                                                                 
     0    -25.3221145     23  1.100                                                                 
     1     -9.0304911     23  1.100                                                                 
     1     -5.4802209     23  1.100                                                                 
     2     -9.5240782      7  1.100                                                                 
  local pseudopotential read in
  partial core-charges read in
  partial kinetic energy density read in
  atomic valenz-charges read in
  non local Contribution for L=           0  read in
    real space projection operators read in
  non local Contribution for L=           0  read in
    real space projection operators read in
  non local Contribution for L=           1  read in
    real space projection operators read in
  non local Contribution for L=           1  read in
    real space projection operators read in
    PAW grid and wavefunctions read in
 
   number of l-projection  operators is LMAX  =           4
   number of lm-projection operators is LMMAX =           8
 
 -----------------------------------------------------------------------------
|                                                                             |
|               ----> ADVICE to this user running VASP <----                  |
|                                                                             |
|     You have a (more or less) 'large supercell' and for larger cells it     |
|     might be more efficient to use real-space projection operators.         |
|     Therefore, try LREAL= Auto in the INCAR file.                           |
|     Mind: For very accurate calculation, you might also keep the            |
|     reciprocal projection scheme (i.e. LREAL=.FALSE.).                      |
|                                                                             |
 -----------------------------------------------------------------------------

 -----------------------------------------------------------------------------
|                                                                             |
|               ----> ADVICE to this user running VASP <----                  |
|                                                                             |
|     You enforced a specific xc type in the INCAR file but a different       |
|     type was found in the POTCAR file.                                      |
|     I HOPE YOU KNOW WHAT YOU ARE DOING!                                     |
|                                                                             |
 -----------------------------------------------------------------------------

  PAW_PBE C_h 06Feb2004                 :
 energy of atom  1       EATOM= -147.1560
 kinetic energy error for atom=    0.0031 (will be added to EATOM!!)
  PAW_PBE O_h 06Feb2004                 :
 energy of atom  2       EATOM= -432.3788
 kinetic energy error for atom=    0.0171 (will be added to EATOM!!)
 
 
 POSCAR:  C  O
  positions in cartesian coordinates
  No initial velocities read in
 exchange correlation table for  LEXCH =       43
   RHO(1)=    0.500       N(1)  =     2000
   RHO(2)=  100.500       N(2)  =     4000
 


--------------------------------------------------------------------------------------------------------


 ion  position               nearest neighbor table
   1  0.972  0.000  0.001-  50 1.42   2 1.42  42 1.42
   2  0.039  0.134  0.000-   5 1.42   7 1.42   1 1.42
   3  0.172  0.000  0.000-  42 1.42  44 1.42   4 1.42
   4  0.239  0.134  0.000-   7 1.42   3 1.42  23 1.42
   5  0.972  0.200  0.000-   6 1.42   2 1.42  34 1.42
   6  0.039  0.334  0.000-   5 1.42  21 1.42  11 1.42
   7  0.172  0.200  0.000-   8 1.42   2 1.42   4 1.42
   8  0.239  0.334  0.000-  13 1.42   7 1.42  21 1.42
   9  0.372  0.000  0.000-  10 1.42  44 1.42  46 1.42
  10  0.439  0.134  0.000-  27 1.42   9 1.42  23 1.42
  11  0.972  0.400  0.001-  12 1.42  36 1.42   6 1.42
  12  0.039  0.534  0.001-  25 1.42  11 1.42  17 1.42
  13  0.372  0.400  0.000-   8 1.42  14 1.42  24 1.42
  14  0.439  0.534  0.000-  13 1.42  29 1.42  19 1.42
  15  0.572  0.000  0.001-  46 1.42  16 1.42  48 1.42
  16  0.639  0.134  0.001-  15 1.42  35 1.42  27 1.42
  17  0.972  0.600  0.001-  38 1.42  18 1.42  12 1.42
  18  0.039  0.734  0.001-  43 1.42  41 1.42  17 1.42
  19  0.572  0.600  0.000-  14 1.42  20 1.42  32 1.42
  20  0.639  0.734  0.001-  49 1.42  19 1.42  47 1.42
  21  0.172  0.400  0.000-  22 1.42   8 1.42   6 1.42
  22  0.239  0.534  0.000-  21 1.42  29 1.42  25 1.42
  23  0.372  0.200  0.000-  10 1.42   4 1.42  24 1.42
  24  0.439  0.334  0.000-  13 1.42  31 1.42  23 1.42
  25  0.172  0.600  0.001-  26 1.42  12 1.42  22 1.42
  26  0.239  0.734  0.001-  25 1.42  45 1.42  43 1.42
  27  0.572  0.200  0.000-  10 1.42  28 1.42  16 1.42
  28  0.639  0.334  0.000-  27 1.42  37 1.42  31 1.42
  29  0.372  0.600  0.000-  22 1.42  14 1.42  30 1.42
  30  0.439  0.734  0.000-  47 1.42  29 1.42  45 1.42
  31  0.572  0.400  0.000-  32 1.42  28 1.42  24 1.42
  32  0.639  0.534  0.000-  31 1.42  39 1.42  19 1.42
  33  0.772  0.000  0.001-  34 1.42  48 1.42  50 1.42
  34  0.839  0.134  0.001-  33 1.42   5 1.42  35 1.42
  35  0.772  0.200  0.001-  36 1.42  16 1.42  34 1.42
  36  0.839  0.334  0.001-  35 1.42  11 1.42  37 1.42
  37  0.772  0.400  0.001-  28 1.42  38 1.42  36 1.42
  38  0.839  0.534  0.001-  17 1.42  37 1.42  39 1.42
  39  0.772  0.600  0.001-  40 1.42  38 1.42  32 1.42
  40  0.839  0.734  0.001-  39 1.42  49 1.42  41 1.42
  41  0.972  0.800  0.001-  18 1.42  42 1.42  40 1.42
  42  0.039  0.934  0.001-   3 1.42  41 1.42   1 1.42
  43  0.172  0.800  0.001-  18 1.42  44 1.42  26 1.42
  44  0.239  0.934  0.001-   9 1.42  43 1.42   3 1.42
  45  0.372  0.800  0.001-  26 1.42  46 1.42  30 1.42
  46  0.439  0.934  0.001-  15 1.42  45 1.42   9 1.42
  47  0.572  0.800  0.001-  30 1.42  48 1.42  20 1.42
  48  0.639  0.934  0.001-  47 1.42  33 1.42  15 1.42
  49  0.772  0.800  0.001-  50 1.42  20 1.42  40 1.42
  50  0.839  0.934  0.001-  49 1.42   1 1.42  33 1.42
  51  0.373  0.251  0.150-  52 1.18  53 1.18
  52  0.421  0.189  0.152-  51 1.18
  53  0.325  0.313  0.147-  51 1.18
 
  LATTYP: Found a hexagonal cell.
 ALAT       =    12.3250000000
 C/A-ratio  =     2.0283975659
  
  Lattice vectors:
  
 A1 = (  12.3250000000,   0.0000000000,   0.0000000000)
 A2 = (  -6.1625000000,  10.6737631016,   0.0000000000)
 A3 = (   0.0000000000,   0.0000000000,  25.0000000000)


Analysis of symmetry for initial positions (statically):
=====================================================================
 Subroutine PRICEL returns:
 Original cell was already a primitive cell.
 

 Routine SETGRP: Setting up the symmetry group for a 
 hexagonal supercell.


 Subroutine GETGRP returns: Found  1 space group operations
 (whereof  1 operations were pure point group operations)
 out of a pool of 24 trial point group operations.


The static configuration has the point symmetry C_1 .


Analysis of symmetry for dynamics (positions and initial velocities):
=====================================================================
 Subroutine PRICEL returns:
 Original cell was already a primitive cell.
 

 Routine SETGRP: Setting up the symmetry group for a 
 hexagonal supercell.


 Subroutine GETGRP returns: Found  1 space group operations
 (whereof  1 operations were pure point group operations)
 out of a pool of 24 trial point group operations.


The dynamic configuration has the point symmetry C_1 .


 Subroutine INISYM returns: Found  1 space group operations
 (whereof  1 operations are pure point group operations),
 and found     1 'primitive' translations


----------------------------------------------------------------------------------------

                                     Primitive cell                                     

  volume of cell :    3288.8533

  direct lattice vectors                    reciprocal lattice vectors
    12.325000000  0.000000000  0.000000000     0.081135903  0.046843835  0.000000000
    -6.162500000 10.673763102  0.000000000     0.000000000  0.093687670  0.000000000
     0.000000000  0.000000000 25.000000000     0.000000000  0.000000000  0.040000000

  length of vectors
    12.325000000 12.325000000 25.000000000     0.093687670  0.093687670  0.040000000

  position of ions in fractional coordinates (direct lattice)
     0.972450841  0.000320818  0.000566711
     0.039118382  0.133659505  0.000440173
     0.172443627  0.000295449  0.000499628
     0.239096278  0.133647917  0.000256468
     0.972452058  0.200322012  0.000485219
     0.039128360  0.333643771  0.000444150
     0.172451764  0.200354552  0.000219167
     0.239124359  0.333665720  0.000072260
     0.372465565  0.000324403  0.000453913
     0.439137473  0.133619939  0.000258338
     0.972449824  0.400309362  0.000547611
     0.039124981  0.533636789  0.000573410
     0.372416176  0.400329481  0.000000000
     0.439099602  0.533638981  0.000232414
     0.572443676  0.000312125  0.000559580
     0.639110207  0.133631751  0.000547275
     0.972452703  0.600305653  0.000640289
     0.039124495  0.733640359  0.000654513
     0.572433471  0.600306242  0.000402895
     0.639111888  0.733641879  0.000527905
     0.172454630  0.400318228  0.000289045
     0.239120185  0.533636548  0.000378509
     0.372459750  0.200295993  0.000088997
     0.439107096  0.333673419  0.000055762
     0.172452155  0.600311506  0.000524340
     0.239123371  0.733638574  0.000575129
     0.572431082  0.200289171  0.000413296
     0.639112773  0.333618630  0.000462376
     0.372439808  0.600308022  0.000362844
     0.439116090  0.733637858  0.000494190
     0.572469358  0.400320504  0.000339918
     0.639119408  0.533650873  0.000459610
     0.772445723  0.000315427  0.000596161
     0.839116277  0.133640203  0.000575306
     0.772440513  0.200307432  0.000581033
     0.839120241  0.333635728  0.000585467
     0.772446320  0.400298367  0.000582978
     0.839118980  0.533633964  0.000621100
     0.772456143  0.600308173  0.000595712
     0.839115033  0.733643180  0.000631512
     0.972455313  0.800305582  0.000652233
     0.039114714  0.933643289  0.000598051
     0.172457971  0.800312211  0.000623372
     0.239134551  0.933647193  0.000544850
     0.372451396  0.800316674  0.000551399
     0.439124489  0.933644769  0.000541430
     0.572441101  0.800310054  0.000534535
     0.639115067  0.933638985  0.000587644
     0.772445098  0.800313187  0.000602062
     0.839116614  0.933644338  0.000606830
     0.373021009  0.251226878  0.149830708
     0.420879805  0.189313152  0.152407582
     0.325156981  0.313167186  0.147452513

  ion indices of the primitive-cell ions
   primitive index   ion index
                 1           1
                 2           2
                 3           3
                 4           4
                 5           5
                 6           6
                 7           7
                 8           8
                 9           9
                10          10
                11          11
                12          12
                13          13
                14          14
                15          15
                16          16
                17          17
                18          18
                19          19
                20          20
                21          21
                22          22
                23          23
                24          24
                25          25
                26          26
                27          27
                28          28
                29          29
                30          30
                31          31
                32          32
                33          33
                34          34
                35          35
                36          36
                37          37
                38          38
                39          39
                40          40
                41          41
                42          42
                43          43
                44          44
                45          45
                46          46
                47          47
                48          48
                49          49
                50          50
                51          51
                52          52
                53          53

----------------------------------------------------------------------------------------

 
 
 KPOINTS: auto                                    

Automatic generation of k-mesh.
 Grid dimensions read from file:
 generate k-points for:    1    1    1

 Generating k-lattice:

  Cartesian coordinates                     Fractional coordinates (reciprocal lattice)
     0.081135903  0.046843835  0.000000000     1.000000000 -0.000000000  0.000000000
     0.000000000  0.093687670  0.000000000     0.000000000  1.000000000  0.000000000
     0.000000000  0.000000000  0.040000000     0.000000000  0.000000000  1.000000000

  Length of vectors
     0.093687670  0.093687670  0.040000000

  Shift w.r.t. Gamma in fractional coordinates (k-lattice)
     0.000000000  0.000000000  0.000000000

 
 Subroutine IBZKPT returns following result:
 ===========================================
 
 Found      1 irreducible k-points:
 
 Following reciprocal coordinates:
            Coordinates               Weight
  0.000000  0.000000  0.000000      1.000000
 
 Following cartesian coordinates:
            Coordinates               Weight
  0.000000  0.000000  0.000000      1.000000
 


--------------------------------------------------------------------------------------------------------




 Dimension of arrays:
   k-points           NKPTS =      1   k-points in BZ     NKDIM =      1   number of bands    NBANDS=    136
   number of dos      NEDOS =    301   number of ions     NIONS =     53
   non local maximal  LDIM  =      4   non local SUM 2l+1 LMDIM =      8
   total plane-waves  NPLWV = ******
   max r-space proj   IRMAX =      1   max aug-charges    IRDMAX=  10008
   dimension x,y,z NGX =   128 NGY =  128 NGZ =  270
   dimension x,y,z NGXF=   256 NGYF=  256 NGZF=  540
   support grid    NGXF=   256 NGYF=  256 NGZF=  540
   ions per type =              51   2
   NGX,Y,Z   is equivalent  to a cutoff of  17.27, 17.27, 17.95 a.u.
   NGXF,Y,Z  is equivalent  to a cutoff of  34.53, 34.53, 35.91 a.u.

 SYSTEM =  unknown system                          
 POSCAR =   C  O                                   

 Startparameter for this run:
   NWRITE =      2    write-flag & timer
   PREC   = accura    normal or accurate (medium, high low for compatibility)
   ISTART =      0    job   : 0-new  1-cont  2-samecut
   ICHARG =      2    charge: 1-file 2-atom 10-const
   ISPIN  =      1    spin polarized calculation?
   LNONCOLLINEAR =      F non collinear calculations
   LSORBIT =      F    spin-orbit coupling
   INIWAV =      1    electr: 0-lowe 1-rand  2-diag
   LASPH  =      T    aspherical Exc in radial PAW
 Electronic Relaxation 1
   ENCUT  = 1000.0 eV  73.50 Ry    8.57 a.u.  31.78 31.78 64.46*2*pi/ulx,y,z
   ENINI  = 1000.0     initial cutoff
   ENAUG  =  946.8 eV  augmentation charge cutoff
   NELM   =     60;   NELMIN=  2; NELMDL= -5     # of ELM steps 
   EDIFF  = 0.1E-06   stopping-criterion for ELM
   LREAL  =      F    real-space projection
   NLSPLINE    = F    spline interpolate recip. space projectors
   LCOMPAT=      F    compatible to vasp.4.4
   GGA_COMPAT  = T    GGA compatible to vasp.4.4-vasp.4.6
   LMAXPAW     = -100 max onsite density
   LMAXMIX     =    2 max onsite mixed and CHGCAR
   VOSKOWN=      0    Vosko Wilk Nusair interpolation
   ROPT   =    0.00000   0.00000
 Ionic relaxation
   EDIFFG = 0.1E-05   stopping-criterion for IOM
   NSW    =      0    number of steps for IOM
   NBLOCK =      1;   KBLOCK =      1    inner block; outer block 
   IBRION =     -1    ionic relax: 0-MD 1-quasi-New 2-CG
   NFREE  =      0    steps in history (QN), initial steepest desc. (CG)
   ISIF   =      0    stress and relaxation
   IWAVPR =     10    prediction:  0-non 1-charg 2-wave 3-comb
   ISYM   =      2    0-nonsym 1-usesym 2-fastsym
   LCORR  =      T    Harris-Foulkes like correction to forces

   POTIM  = 0.5000    time-step for ionic-motion
   TEIN   =    0.0    initial temperature
   TEBEG  =    0.0;   TEEND  =   0.0 temperature during run
   SMASS  =  -3.00    Nose mass-parameter (am)
   estimated Nose-frequenzy (Omega)   =  0.10E-29 period in steps = 0.13E+47 mass=  -0.347E-26a.u.
   SCALEE = 1.0000    scale energy and forces
   NPACO  =    256;   APACO  = 16.0  distance and # of slots for P.C.
   PSTRESS=    0.0 pullay stress

  Mass of Ions in am
   POMASS =  12.01 16.00
  Ionic Valenz
   ZVAL   =   4.00  6.00
  Atomic Wigner-Seitz radii
   RWIGS  =  -1.00 -1.00
  virtual crystal weights 
   VCA    =   1.00  1.00
   NELECT =     216.0000    total number of electrons
   NUPDOWN=      -1.0000    fix difference up-down

 DOS related values:
   EMIN   =  10.00;   EMAX   =-10.00  energy-range for DOS
   EFERMI =   0.00
   ISMEAR =     0;   SIGMA  =   0.01  broadening in eV -4-tet -1-fermi 0-gaus

 Electronic relaxation 2 (details)
   IALGO  =     58    algorithm
   LDIAG  =      T    sub-space diagonalisation (order eigenvalues)
   LSUBROT=      F    optimize rotation matrix (better conditioning)
   TURBO    =      0    0=normal 1=particle mesh
   IRESTART =      0    0=no restart 2=restart with 2 vectors
   NREBOOT  =      0    no. of reboots
   NMIN     =      0    reboot dimension
   EREF     =   0.00    reference energy to select bands
   IMIX   =      4    mixing-type and parameters
     AMIX     =   0.40;   BMIX     =  1.00
     AMIX_MAG =   1.60;   BMIX_MAG =  1.00
     AMIN     =   0.10
     WC   =   100.;   INIMIX=   1;  MIXPRE=   1;  MAXMIX= -45

 Intra band minimization:
   WEIMIN = 0.0000     energy-eigenvalue tresh-hold
   EBREAK =  0.18E-09  absolut break condition
   DEPER  =   0.30     relativ break condition  

   TIME   =   0.40     timestep for ELM

  volume/ion in A,a.u.               =      62.05       418.76
  Fermi-wavevector in a.u.,A,eV,Ry     =   0.660508  1.248179  5.935820  0.436270
  Thomas-Fermi vector in A             =   1.732977
 
 Write flags
   LWAVE        =      T    write WAVECAR
   LDOWNSAMPLE  =      F    k-point downsampling of WAVECAR
   LCHARG       =      T    write CHGCAR
   LVTOT        =      F    write LOCPOT, total local potential
   LVHAR        =      F    write LOCPOT, Hartree potential only
   LELF         =      F    write electronic localiz. function (ELF)
   LORBIT       =      0    0 simple, 1 ext, 2 COOP (PROOUT), +10 PAW based schemes


 Dipole corrections
   LMONO  =      F    monopole corrections only (constant potential shift)
   LDIPOL =      F    correct potential (dipole corrections)
   IDIPOL =      0    1-x, 2-y, 3-z, 4-all directions 
   EPSILON=  1.0000000 bulk dielectric constant

 Exchange correlation treatment:
   GGA     =    MK    GGA type
   LEXCH   =    43    internal setting for exchange type
   VOSKOWN=      0    Vosko Wilk Nusair interpolation
   LHFCALC =     F    Hartree Fock is set to
   LHFONE  =     F    Hartree Fock one center treatment
   AEXX    =    0.0000 exact exchange contribution

 vdW DFT:
   LUSE_VDW   =     T    switch on vdW DFT
   Zab_VDW    =******    correlation parameter
   PARAM1     =0.1234
   PARAM2     =0.7114
   PARAM3     =0.0000
   -- rVV10 --
   BPARAM     = 6.3000
   CPARAM     = 0.0093

 Linear response parameters
   LEPSILON=     F    determine dielectric tensor
   LRPA    =     F    only Hartree local field effects (RPA)
   LNABLA  =     F    use nabla operator in PAW spheres
   LVEL    =     F    velocity operator in full k-point grid
   LINTERFAST=   F  fast interpolation
   KINTER  =     0    interpolate to denser k-point grid
   CSHIFT  =0.1000    complex shift for real part using Kramers Kronig
   OMEGAMAX=  -1.0    maximum frequency
   DEG_THRESHOLD= 0.2000000E-02 threshold for treating states as degnerate
   RTIME   =   -0.100 relaxation time in fs
  (WPLASMAI=    0.000 imaginary part of plasma frequency in eV, 0.658/RTIME)
   DFIELD  = 0.0000000 0.0000000 0.0000000 field for delta impulse in time
 
 Orbital magnetization related:
   ORBITALMAG=     F  switch on orbital magnetization
   LCHIMAG   =     F  perturbation theory with respect to B field
   DQ        =  0.001000  dq finite difference perturbation B field
   LLRAUG    =     F  two centre corrections for induced B field



--------------------------------------------------------------------------------------------------------


 Static calculation
 charge density and potential will be updated during run
 non-spin polarized calculation
 Conjugate gradient for all bands (Freysoldt, et al. PRB 79, 241103 (2009))
 preconditioned conjugated gradient                                        
 perform sub-space diagonalisation
    before iterative eigenvector-optimisation
 modified Broyden-mixing scheme, WC =      100.0
 initial mixing is a Kerker type mixing with AMIX =  0.4000 and BMIX =      1.0000
 Hartree-type preconditioning will be used
 using additional bands           28
 reciprocal scheme for non local part
 use partial core corrections
 no Harris-corrections to forces 
 use gradient corrections 
 use of overlap-Matrix (Vanderbilt PP)
 Gauss-broadening in eV      SIGMA  =   0.01


--------------------------------------------------------------------------------------------------------


  energy-cutoff  :     1000.00
  volume of cell :     3288.85
      direct lattice vectors                 reciprocal lattice vectors
    12.325000000  0.000000000  0.000000000     0.081135903  0.046843835  0.000000000
    -6.162500000 10.673763102  0.000000000     0.000000000  0.093687670  0.000000000
     0.000000000  0.000000000 25.000000000     0.000000000  0.000000000  0.040000000

  length of vectors
    12.325000000 12.325000000 25.000000000     0.093687670  0.093687670  0.040000000


 
 k-points in units of 2pi/SCALE and weight: auto                                    
   0.00000000  0.00000000  0.00000000       1.000
 
 k-points in reciprocal lattice and weights: auto                                    
   0.00000000  0.00000000  0.00000000       1.000
 
 position of ions in fractional coordinates (direct lattice) 
   0.97245084  0.00032082  0.00056671
   0.03911838  0.13365950  0.00044017
   0.17244363  0.00029545  0.00049963
   0.23909628  0.13364792  0.00025647
   0.97245206  0.20032201  0.00048522
   0.03912836  0.33364377  0.00044415
   0.17245176  0.20035455  0.00021917
   0.23912436  0.33366572  0.00007226
   0.37246557  0.00032440  0.00045391
   0.43913747  0.13361994  0.00025834
   0.97244982  0.40030936  0.00054761
   0.03912498  0.53363679  0.00057341
   0.37241618  0.40032948  0.00000000
   0.43909960  0.53363898  0.00023241
   0.57244368  0.00031213  0.00055958
   0.63911021  0.13363175  0.00054727
   0.97245270  0.60030565  0.00064029
   0.03912449  0.73364036  0.00065451
   0.57243347  0.60030624  0.00040289
   0.63911189  0.73364188  0.00052791
   0.17245463  0.40031823  0.00028904
   0.23912018  0.53363655  0.00037851
   0.37245975  0.20029599  0.00008900
   0.43910710  0.33367342  0.00005576
   0.17245216  0.60031151  0.00052434
   0.23912337  0.73363857  0.00057513
   0.57243108  0.20028917  0.00041330
   0.63911277  0.33361863  0.00046238
   0.37243981  0.60030802  0.00036284
   0.43911609  0.73363786  0.00049419
   0.57246936  0.40032050  0.00033992
   0.63911941  0.53365087  0.00045961
   0.77244572  0.00031543  0.00059616
   0.83911628  0.13364020  0.00057531
   0.77244051  0.20030743  0.00058103
   0.83912024  0.33363573  0.00058547
   0.77244632  0.40029837  0.00058298
   0.83911898  0.53363396  0.00062110
   0.77245614  0.60030817  0.00059571
   0.83911503  0.73364318  0.00063151
   0.97245531  0.80030558  0.00065223
   0.03911471  0.93364329  0.00059805
   0.17245797  0.80031221  0.00062337
   0.23913455  0.93364719  0.00054485
   0.37245140  0.80031667  0.00055140
   0.43912449  0.93364477  0.00054143
   0.57244110  0.80031005  0.00053453
   0.63911507  0.93363899  0.00058764
   0.77244510  0.80031319  0.00060206
   0.83911661  0.93364434  0.00060683
   0.37302101  0.25122688  0.14983071
   0.42087980  0.18931315  0.15240758
   0.32515698  0.31316719  0.14745251
 
 position of ions in cartesian coordinates  (Angst):
  11.98347958  0.00342433  0.01416777
  -0.34154264  1.42664989  0.01100432
   2.12354700  0.00315355  0.01249070
   2.12325634  1.42652621  0.00641170
  10.75098721  2.13818970  0.01213047
  -1.57382270  3.56123457  0.01110375
   0.89078307  2.13853702  0.00547917
   0.89099273  3.56146885  0.00180651
   4.58863896  0.00346260  0.01134782
   4.58893648  1.42622757  0.00645846
   9.51853763  4.27280730  0.01369027
  -2.80632132  5.69591267  0.01433526
   2.12299894  4.27302204  0.00000000
   2.12335237  5.69593607  0.00581036
   7.05344483  0.00333155  0.01398950
   7.05352764  1.42635365  0.01368187
   8.28609598  6.40752033  0.01600723
  -4.03884931  7.83070339  0.01636283
   3.35585531  6.40752662  0.01007237
   3.35598594  7.83071962  0.01319763
  -0.34145776  4.27290193  0.00722612
  -0.34137895  5.69591010  0.00946273
   3.35624236  2.13791198  0.00222492
   3.35573251  3.56155103  0.00139405
  -1.57394684  6.40758280  0.01310850
  -1.57385216  7.83068434  0.01437823
   5.82093107  2.13783916  0.01033241
   5.82114012  3.56096622  0.01155939
   0.89092245  6.40754561  0.00907111
   0.89106251  7.83067670  0.01235474
   4.58870974  4.27292622  0.00849795
   4.58852320  5.69606300  0.01149026
   9.51844972  0.00336679  0.01490402
   9.51855036  1.42644387  0.01438264
   8.28593477  2.13803408  0.01452582
   8.28612680  3.56114872  0.01463668
   7.05356221  4.27268994  0.01457444
   7.05362213  5.69588251  0.01552751
   5.82112285  6.40754723  0.01489279
   5.82101669  7.83073350  0.01578780
   7.05362858  8.54227219  0.01630582
  -5.27148792  9.96548729  0.01495127
  -2.80637951  8.54234295  0.01558431
  -2.80626749  9.96552896  0.01362126
  -0.34148805  8.54239058  0.01378498
  -0.34137657  9.96550309  0.01353576
   2.12342586  8.54231992  0.01336337
   2.12354296  9.96544135  0.01469111
   4.58845581  8.54235337  0.01505154
   4.58852904  9.96549848  0.01517076
   3.04929830  2.68153618  3.74576769
   4.02070129  2.02068374  3.81018955
   2.07766701  3.34267235  3.68631282
 


--------------------------------------------------------------------------------------------------------


 k-point   1 :   0.0000 0.0000 0.0000  plane waves:  236157

 maximum and minimum number of plane-waves per node :      8440     8428

 maximum number of plane-waves:    236157
 maximum index in each direction: 
   IXMAX=   31   IYMAX=   31   IZMAX=   64
   IXMIN=  -31   IYMIN=  -31   IZMIN=  -64


 parallel 3D FFT for wavefunctions:
    minimum data exchange during FFTs selected (reduces bandwidth)
 parallel 3D FFT for charge:
    minimum data exchange during FFTs selected (reduces bandwidth)


 total amount of memory used by VASP MPI-rank0   100580. kBytes
=======================================================================

   base      :      30000. kBytes
   nonl-proj :       8229. kBytes
   fftplans  :      18352. kBytes
   grid      :      30208. kBytes
   one-center:          6. kBytes
   wavefun   :      13785. kBytes
 
     INWAV:  cpu time    0.0000: real time    0.0000
 Broyden mixing: mesh for mixing (old mesh)
   NGX = 63   NGY = 63   NGZ =129
  (NGX  =256   NGY  =256   NGZ  =540)
  gives a total of 512001 points

 initial charge density was supplied:
 charge density of overlapping atoms calculated
 number of electron     216.0000000 magnetization 
 keeping initial charge density in first step


--------------------------------------------------------------------------------------------------------


 Maximum index for augmentation-charges          471 (set IRDMAX)


--------------------------------------------------------------------------------------------------------


 First call to EWALD:  gamma=   0.119
 Maximum number of real-space cells 4x 4x 2
 Maximum number of reciprocal cells 2x 2x 4

    FEWALD:  cpu time    0.0035: real time    0.0035


--------------------------------------- Iteration      1(   1)  ---------------------------------------


vdW kernel read from vdw_kernel.bindat
  0.0000  0.2424  0.5071  0.7962  1.1119  1.4567  1.8333  2.2446  2.6937  3.1842
  3.7199  4.3049  4.9438  5.6415  6.4036  7.2358  8.1446  9.1372 10.2212 11.4050
 12.6979 14.1099 15.6519 17.3360 19.1751 21.1837 23.3773 25.7729 28.3892 31.2465
 34.3669 37.7748 41.4965 45.5611 50.0000
 
    POTLOK:  cpu time    4.5714: real time    4.6196
    SETDIJ:  cpu time    0.0560: real time    0.0563
    TRIAL :  cpu time    2.1135: real time    2.1361
    CORREC:  cpu time    0.0004: real time    0.0004
    --------------------------------------------
      LOOP:  cpu time    6.7448: real time    6.8305

 eigenvalue-minimisations  :   296
 total energy-change (2. order) : 0.2730682E+04  (-0.1022817E+05)
 number of electron     216.0000000 magnetization 
 augmentation part      216.0000000 magnetization 

 Free energy of the ion-electron system (eV)
  ---------------------------------------------------
  alpha Z        PSCENC =        47.94900195
  Ewald energy   TEWEN  =     46588.29822549
  -Hartree energ DENC   =    -52657.32279191
  -exchange      EXHF   =         0.00000000
  -V(xc)+E(xc)   XCENC  =       412.38283911
  PAW double counting   =      6548.36373666    -6261.59511771
  entropy T*S    EENTRO =        -0.00000000
  eigenvalues    EBANDS =      -368.33941319
  atomic energy  EATOM  =      8420.94593319
  ---------------------------------------------------
  free energy    TOTEN  =      2730.68241360 eV

  energy without entropy =     2730.68241360  energy(sigma->0) =     2730.68241360


--------------------------------------------------------------------------------------------------------




--------------------------------------- Iteration      1(   2)  ---------------------------------------


    TRIAL :  cpu time    2.8311: real time    2.8565
    CORREC:  cpu time    0.0000: real time    0.0000
    --------------------------------------------
      LOOP:  cpu time    2.8788: real time    2.9078

 eigenvalue-minimisations  :   440
 total energy-change (2. order) :-0.2301286E+04  (-0.2152729E+04)
 number of electron     216.0000000 magnetization 
 augmentation part      216.0000000 magnetization 

 Free energy of the ion-electron system (eV)
  ---------------------------------------------------
  alpha Z        PSCENC =        47.94900195
  Ewald energy   TEWEN  =     46588.29822549
  -Hartree energ DENC   =    -52657.32279191
  -exchange      EXHF   =         0.00000000
  -V(xc)+E(xc)   XCENC  =       412.38283911
  PAW double counting   =      6548.36373666    -6261.59511771
  entropy T*S    EENTRO =        -0.00000000
  eigenvalues    EBANDS =     -2669.62517672
  atomic energy  EATOM  =      8420.94593319
  ---------------------------------------------------
  free energy    TOTEN  =       429.39665007 eV

  energy without entropy =      429.39665007  energy(sigma->0) =      429.39665007


--------------------------------------------------------------------------------------------------------




--------------------------------------- Iteration      1(   3)  ---------------------------------------


    TRIAL :  cpu time    2.4953: real time    2.5172
    CORREC:  cpu time    0.0001: real time    0.0001
    --------------------------------------------
      LOOP:  cpu time    2.5872: real time    2.6140

 eigenvalue-minimisations  :   368
 total energy-change (2. order) :-0.8136878E+03  (-0.8013898E+03)
 number of electron     216.0000000 magnetization 
 augmentation part      216.0000000 magnetization 

 Free energy of the ion-electron system (eV)
  ---------------------------------------------------
  alpha Z        PSCENC =        47.94900195
  Ewald energy   TEWEN  =     46588.29822549
  -Hartree energ DENC   =    -52657.32279191
  -exchange      EXHF   =         0.00000000
  -V(xc)+E(xc)   XCENC  =       412.38283911
  PAW double counting   =      6548.36373666    -6261.59511771
  entropy T*S    EENTRO =        -0.00000000
  eigenvalues    EBANDS =     -3483.31293152
  atomic energy  EATOM  =      8420.94593319
  ---------------------------------------------------
  free energy    TOTEN  =      -384.29110474 eV

  energy without entropy =     -384.29110474  energy(sigma->0) =     -384.29110474


--------------------------------------------------------------------------------------------------------




--------------------------------------- Iteration      1(   4)  ---------------------------------------


    TRIAL :  cpu time    2.3132: real time    2.3360
    CORREC:  cpu time    0.0000: real time    0.0000
    --------------------------------------------
      LOOP:  cpu time    2.3737: real time    2.3998

 eigenvalue-minimisations  :   336
 total energy-change (2. order) :-0.7381607E+02  (-0.7248604E+02)
 number of electron     216.0000000 magnetization 
 augmentation part      216.0000000 magnetization 

 Free energy of the ion-electron system (eV)
  ---------------------------------------------------
  alpha Z        PSCENC =        47.94900195
  Ewald energy   TEWEN  =     46588.29822549
  -Hartree energ DENC   =    -52657.32279191
  -exchange      EXHF   =         0.00000000
  -V(xc)+E(xc)   XCENC  =       412.38283911
  PAW double counting   =      6548.36373666    -6261.59511771
  entropy T*S    EENTRO =        -0.00000000
  eigenvalues    EBANDS =     -3557.12899861
  atomic energy  EATOM  =      8420.94593319
  ---------------------------------------------------
  free energy    TOTEN  =      -458.10717182 eV

  energy without entropy =     -458.10717182  energy(sigma->0) =     -458.10717182


--------------------------------------------------------------------------------------------------------




--------------------------------------- Iteration      1(   5)  ---------------------------------------


    TRIAL :  cpu time    2.4593: real time    2.4812
    CORREC:  cpu time    0.0001: real time    0.0001
    CHARGE:  cpu time    0.1802: real time    0.1826
    --------------------------------------------
      LOOP:  cpu time    2.6729: real time    2.7129

 eigenvalue-minimisations  :   368
 total energy-change (2. order) :-0.2273184E+01  (-0.2257182E+01)
 number of electron     216.0000000 magnetization 
 augmentation part       -0.2305937 magnetization 

 Free energy of the ion-electron system (eV)
  ---------------------------------------------------
  alpha Z        PSCENC =        47.94900195
  Ewald energy   TEWEN  =     46588.29822549
  -Hartree energ DENC   =    -52657.32279191
  -exchange      EXHF   =         0.00000000
  -V(xc)+E(xc)   XCENC  =       412.38283911
  PAW double counting   =      6548.36373666    -6261.59511771
  entropy T*S    EENTRO =        -0.00000000
  eigenvalues    EBANDS =     -3559.40218221
  atomic energy  EATOM  =      8420.94593319
  ---------------------------------------------------
  free energy    TOTEN  =      -460.38035542 eV

  energy without entropy =     -460.38035542  energy(sigma->0) =     -460.38035542


--------------------------------------------------------------------------------------------------------




--------------------------------------- Iteration      1(   6)  ---------------------------------------


    POTLOK:  cpu time    4.3127: real time    4.3483
    SETDIJ:  cpu time    0.0542: real time    0.0544
    TRIAL :  cpu time    1.1573: real time    1.1690
    CORREC:  cpu time    4.7629: real time    4.8003
    CHARGE:  cpu time    0.1778: real time    0.1796
    --------------------------------------------
      LOOP:  cpu time   10.5022: real time   10.6195

 eigenvalue-minimisations  :     0
 total energy-change (2. order) : 0.5227114E+02  (-0.1635350E+02)
 number of electron     216.0000000 magnetization 
 augmentation part       -0.3285346 magnetization 

 Free energy of the ion-electron system (eV)
  ---------------------------------------------------
  alpha Z        PSCENC =        47.94900195
  Ewald energy   TEWEN  =     46588.29822549
  -Hartree energ DENC   =    -54098.61931602
  -exchange      EXHF   =         0.00000000
  -V(xc)+E(xc)   XCENC  =       460.00791527
  PAW double counting   =     80237.51604095   -79957.15084184
  entropy T*S    EENTRO =        -0.00000000
  eigenvalues    EBANDS =     -2107.05617375
  atomic energy  EATOM  =      8420.94593319
  ---------------------------------------------------
  free energy    TOTEN  =      -408.10921474 eV

  energy without entropy =     -408.10921474  energy(sigma->0) =     -408.10921474


--------------------------------------------------------------------------------------------------------




--------------------------------------- Iteration      1(   7)  ---------------------------------------


    POTLOK:  cpu time    4.2817: real time    4.3124
    SETDIJ:  cpu time    0.0543: real time    0.0545
    TRIAL :  cpu time    1.1540: real time    1.1654
    CORREC:  cpu time    4.7765: real time    4.8125
    CHARGE:  cpu time    0.1775: real time    0.1797
    --------------------------------------------
      LOOP:  cpu time   10.5091: real time   10.5963

 eigenvalue-minimisations  :     0
 total energy-change (2. order) :-0.1639990E+02  (-0.1825813E+01)
 number of electron     216.0000000 magnetization 
 augmentation part       -0.3746120 magnetization 

 Free energy of the ion-electron system (eV)
  ---------------------------------------------------
  alpha Z        PSCENC =        47.94900195
  Ewald energy   TEWEN  =     46588.29822549
  -Hartree energ DENC   =    -53572.79038682
  -exchange      EXHF   =         0.00000000
  -V(xc)+E(xc)   XCENC  =       442.60695669
  PAW double counting   =     95389.61739463   -95106.51418293
  entropy T*S    EENTRO =        -0.00000000
  eigenvalues    EBANDS =     -2634.62205882
  atomic energy  EATOM  =      8420.94593319
  ---------------------------------------------------
  free energy    TOTEN  =      -424.50911661 eV

  energy without entropy =     -424.50911661  energy(sigma->0) =     -424.50911661


--------------------------------------------------------------------------------------------------------




--------------------------------------- Iteration      1(   8)  ---------------------------------------


    POTLOK:  cpu time    4.2986: real time    4.3300
    SETDIJ:  cpu time    0.0541: real time    0.0543
    TRIAL :  cpu time    1.1534: real time    1.1643
    CORREC:  cpu time    4.7790: real time    4.8175
    CHARGE:  cpu time    0.1787: real time    0.1804
    --------------------------------------------
      LOOP:  cpu time   10.5202: real time   10.6041

 eigenvalue-minimisations  :     0
 total energy-change (2. order) :-0.1825436E+01  (-0.5021054E+00)
 number of electron     216.0000000 magnetization 
 augmentation part       -0.3925241 magnetization 

 Free energy of the ion-electron system (eV)
  ---------------------------------------------------
  alpha Z        PSCENC =        47.94900195
  Ewald energy   TEWEN  =     46588.29822549
  -Hartree energ DENC   =    -53549.46328164
  -exchange      EXHF   =         0.00000000
  -V(xc)+E(xc)   XCENC  =       442.18451174
  PAW double counting   =     99528.86097034   -99245.43158096
  entropy T*S    EENTRO =        -0.00000000
  eigenvalues    EBANDS =     -2659.67833254
  atomic energy  EATOM  =      8420.94593319
  ---------------------------------------------------
  free energy    TOTEN  =      -426.33455243 eV

  energy without entropy =     -426.33455243  energy(sigma->0) =     -426.33455243


--------------------------------------------------------------------------------------------------------




--------------------------------------- Iteration      1(   9)  ---------------------------------------


    POTLOK:  cpu time    4.2754: real time    4.3090
    SETDIJ:  cpu time    0.0541: real time    0.0543
    TRIAL :  cpu time    1.1536: real time    1.1659
    CORREC:  cpu time    4.7563: real time    4.7931
    CHARGE:  cpu time    0.1770: real time    0.1787
    --------------------------------------------
      LOOP:  cpu time   10.4687: real time   10.5544

 eigenvalue-minimisations  :     0
 total energy-change (2. order) :-0.5020180E+00  (-0.1916329E+00)
 number of electron     216.0000000 magnetization 
 augmentation part       -0.4013305 magnetization 

 Free energy of the ion-electron system (eV)
  ---------------------------------------------------
  alpha Z        PSCENC =        47.94900195
  Ewald energy   TEWEN  =     46588.29822549
  -Hartree energ DENC   =    -53563.47611226
  -exchange      EXHF   =         0.00000000
  -V(xc)+E(xc)   XCENC  =       442.35882753
  PAW double counting   =    102303.43013489  -102019.85663324
  entropy T*S    EENTRO =        -0.00000000
  eigenvalues    EBANDS =     -2646.48594796
  atomic energy  EATOM  =      8420.94593319
  ---------------------------------------------------
  free energy    TOTEN  =      -426.83657040 eV

  energy without entropy =     -426.83657040  energy(sigma->0) =     -426.83657040


--------------------------------------------------------------------------------------------------------




--------------------------------------- Iteration      1(  10)  ---------------------------------------


    POTLOK:  cpu time    4.2948: real time    4.3258
    SETDIJ:  cpu time    0.0542: real time    0.0544
    TRIAL :  cpu time    1.1534: real time    1.1645
    CORREC:  cpu time    4.7640: real time    4.8043
    CHARGE:  cpu time    0.1779: real time    0.1796
    --------------------------------------------
      LOOP:  cpu time   10.5152: real time   10.6063

 eigenvalue-minimisations  :     0
 total energy-change (2. order) :-0.1911491E+00  (-0.8981194E-01)
 number of electron     216.0000000 magnetization 
 augmentation part       -0.4019534 magnetization 

 Free energy of the ion-electron system (eV)
  ---------------------------------------------------
  alpha Z        PSCENC =        47.94900195
  Ewald energy   TEWEN  =     46588.29822549
  -Hartree energ DENC   =    -53561.37380172
  -exchange      EXHF   =         0.00000000
  -V(xc)+E(xc)   XCENC  =       442.22014580
  PAW double counting   =    102932.45187892  -102648.78771086
  entropy T*S    EENTRO =        -0.00000000
  eigenvalues    EBANDS =     -2648.73139224
  atomic energy  EATOM  =      8420.94593319
  ---------------------------------------------------
  free energy    TOTEN  =      -427.02771947 eV

  energy without entropy =     -427.02771947  energy(sigma->0) =     -427.02771947


--------------------------------------------------------------------------------------------------------




--------------------------------------- Iteration      1(  11)  ---------------------------------------


    POTLOK:  cpu time    4.3026: real time    4.3337
    SETDIJ:  cpu time    0.0546: real time    0.0548
    TRIAL :  cpu time    1.1537: real time    1.1652
    CORREC:  cpu time    4.7966: real time    4.8353
    CHARGE:  cpu time    0.1785: real time    0.1803
    --------------------------------------------
      LOOP:  cpu time   10.5374: real time   10.6221

 eigenvalue-minimisations  :     0
 total energy-change (2. order) :-0.8935395E-01  (-0.3599380E-01)
 number of electron     216.0000000 magnetization 
 augmentation part       -0.4011852 magnetization 

 Free energy of the ion-electron system (eV)
  ---------------------------------------------------
  alpha Z        PSCENC =        47.94900195
  Ewald energy   TEWEN  =     46588.29822549
  -Hartree energ DENC   =    -53554.08649867
  -exchange      EXHF   =         0.00000000
  -V(xc)+E(xc)   XCENC  =       442.10669058
  PAW double counting   =    102504.88351019  -102221.22304945
  entropy T*S    EENTRO =        -0.00000000
  eigenvalues    EBANDS =     -2655.99088671
  atomic energy  EATOM  =      8420.94593319
  ---------------------------------------------------
  free energy    TOTEN  =      -427.11707342 eV

  energy without entropy =     -427.11707342  energy(sigma->0) =     -427.11707342


--------------------------------------------------------------------------------------------------------




--------------------------------------- Iteration      1(  12)  ---------------------------------------


    POTLOK:  cpu time    4.2862: real time    4.3179
    SETDIJ:  cpu time    0.0541: real time    0.0543
    TRIAL :  cpu time    1.1553: real time    1.1675
    CORREC:  cpu time    4.7635: real time    4.8000
    CHARGE:  cpu time    0.1769: real time    0.1790
    --------------------------------------------
      LOOP:  cpu time   10.4930: real time   10.5813

 eigenvalue-minimisations  :     0
 total energy-change (2. order) :-0.3588675E-01  (-0.1125503E-01)
 number of electron     216.0000000 magnetization 
 augmentation part       -0.4010083 magnetization 

 Free energy of the ion-electron system (eV)
  ---------------------------------------------------
  alpha Z        PSCENC =        47.94900195
  Ewald energy   TEWEN  =     46588.29822549
  -Hartree energ DENC   =    -53550.62638586
  -exchange      EXHF   =         0.00000000
  -V(xc)+E(xc)   XCENC  =       442.03239891
  PAW double counting   =    102121.94978375  -101838.31397978
  entropy T*S    EENTRO =        -0.00000000
  eigenvalues    EBANDS =     -2659.38793783
  atomic energy  EATOM  =      8420.94593319
  ---------------------------------------------------
  free energy    TOTEN  =      -427.15296017 eV

  energy without entropy =     -427.15296017  energy(sigma->0) =     -427.15296017


--------------------------------------------------------------------------------------------------------




--------------------------------------- Iteration      1(  13)  ---------------------------------------


    POTLOK:  cpu time    4.3032: real time    4.3349
    SETDIJ:  cpu time    0.0541: real time    0.0544
    TRIAL :  cpu time    1.1515: real time    1.1629
    CORREC:  cpu time    4.7845: real time    4.8228
    CHARGE:  cpu time    0.1779: real time    0.1796
    --------------------------------------------
      LOOP:  cpu time   10.4988: real time   10.5861

 eigenvalue-minimisations  :     0
 total energy-change (2. order) :-0.1124921E-01  (-0.3293417E-02)
 number of electron     216.0000000 magnetization 
 augmentation part       -0.4003769 magnetization 

 Free energy of the ion-electron system (eV)
  ---------------------------------------------------
  alpha Z        PSCENC =        47.94900195
  Ewald energy   TEWEN  =     46588.29822549
  -Hartree energ DENC   =    -53550.49856596
  -exchange      EXHF   =         0.00000000
  -V(xc)+E(xc)   XCENC  =       442.02000846
  PAW double counting   =    101961.65860127  -101678.03566317
  entropy T*S    EENTRO =        -0.00000000
  eigenvalues    EBANDS =     -2659.50175062
  atomic energy  EATOM  =      8420.94593319
  ---------------------------------------------------
  free energy    TOTEN  =      -427.16420939 eV

  energy without entropy =     -427.16420939  energy(sigma->0) =     -427.16420939


--------------------------------------------------------------------------------------------------------




--------------------------------------- Iteration      1(  14)  ---------------------------------------


    POTLOK:  cpu time    4.2758: real time    4.3129
    SETDIJ:  cpu time    0.0543: real time    0.0545
    TRIAL :  cpu time    1.1650: real time    1.1779
    CORREC:  cpu time    4.7616: real time    4.8014
    CHARGE:  cpu time    0.1783: real time    0.1801
    --------------------------------------------
      LOOP:  cpu time   10.5136: real time   10.6068

 eigenvalue-minimisations  :     0
 total energy-change (2. order) :-0.3295505E-02  (-0.1164722E-02)
 number of electron     216.0000000 magnetization 
 augmentation part       -0.3999945 magnetization 

 Free energy of the ion-electron system (eV)
  ---------------------------------------------------
  alpha Z        PSCENC =        47.94900195
  Ewald energy   TEWEN  =     46588.29822549
  -Hartree energ DENC   =    -53550.60610118
  -exchange      EXHF   =         0.00000000
  -V(xc)+E(xc)   XCENC  =       442.01983311
  PAW double counting   =    101943.32950838  -101659.71178915
  entropy T*S    EENTRO =        -0.00000000
  eigenvalues    EBANDS =     -2659.39211670
  atomic energy  EATOM  =      8420.94593319
  ---------------------------------------------------
  free energy    TOTEN  =      -427.16750489 eV

  energy without entropy =     -427.16750489  energy(sigma->0) =     -427.16750489


--------------------------------------------------------------------------------------------------------




--------------------------------------- Iteration      1(  15)  ---------------------------------------


    POTLOK:  cpu time    4.2756: real time    4.3080
    SETDIJ:  cpu time    0.0542: real time    0.0544
    TRIAL :  cpu time    1.1570: real time    1.1686
    CORREC:  cpu time    4.7472: real time    4.7860
    CHARGE:  cpu time    0.1784: real time    0.1801
    --------------------------------------------
      LOOP:  cpu time   10.4786: real time   10.5769

 eigenvalue-minimisations  :     0
 total energy-change (2. order) :-0.1167755E-02  (-0.5748680E-03)
 number of electron     216.0000000 magnetization 
 augmentation part       -0.3995547 magnetization 

 Free energy of the ion-electron system (eV)
  ---------------------------------------------------
  alpha Z        PSCENC =        47.94900195
  Ewald energy   TEWEN  =     46588.29822549
  -Hartree energ DENC   =    -53550.23719665
  -exchange      EXHF   =         0.00000000
  -V(xc)+E(xc)   XCENC  =       442.00177249
  PAW double counting   =    101933.48559117  -101649.86655169
  entropy T*S    EENTRO =        -0.00000000
  eigenvalues    EBANDS =     -2659.74544860
  atomic energy  EATOM  =      8420.94593319
  ---------------------------------------------------
  free energy    TOTEN  =      -427.16867265 eV

  energy without entropy =     -427.16867265  energy(sigma->0) =     -427.16867265


--------------------------------------------------------------------------------------------------------




--------------------------------------- Iteration      1(  16)  ---------------------------------------


    POTLOK:  cpu time    4.2911: real time    4.3242
    SETDIJ:  cpu time    0.0541: real time    0.0543
    TRIAL :  cpu time    1.1505: real time    1.1651
    CORREC:  cpu time    4.7565: real time    4.8004
    CHARGE:  cpu time    0.1802: real time    0.1821
    --------------------------------------------
      LOOP:  cpu time   10.4711: real time   10.5865

 eigenvalue-minimisations  :     0
 total energy-change (2. order) :-0.5767285E-03  (-0.3017238E-03)
 number of electron     216.0000000 magnetization 
 augmentation part       -0.3994064 magnetization 

 Free energy of the ion-electron system (eV)
  ---------------------------------------------------
  alpha Z        PSCENC =        47.94900195
  Ewald energy   TEWEN  =     46588.29822549
  -Hartree energ DENC   =    -53550.59860848
  -exchange      EXHF   =         0.00000000
  -V(xc)+E(xc)   XCENC  =       442.01385987
  PAW double counting   =    101875.92463175  -101592.30725059
  entropy T*S    EENTRO =        -0.00000000
  eigenvalues    EBANDS =     -2659.39504256
  atomic energy  EATOM  =      8420.94593319
  ---------------------------------------------------
  free energy    TOTEN  =      -427.16924938 eV

  energy without entropy =     -427.16924938  energy(sigma->0) =     -427.16924938


--------------------------------------------------------------------------------------------------------




--------------------------------------- Iteration      1(  17)  ---------------------------------------


    POTLOK:  cpu time    4.2983: real time    4.3380
    SETDIJ:  cpu time    0.0540: real time    0.0544
    TRIAL :  cpu time    1.1478: real time    1.1671
    CORREC:  cpu time    4.7517: real time    4.7896
    CHARGE:  cpu time    0.1787: real time    0.1806
    --------------------------------------------
      LOOP:  cpu time   10.4910: real time   10.5916

 eigenvalue-minimisations  :     0
 total energy-change (2. order) :-0.3024716E-03  (-0.1260777E-03)
 number of electron     216.0000000 magnetization 
 augmentation part       -0.3994954 magnetization 

 Free energy of the ion-electron system (eV)
  ---------------------------------------------------
  alpha Z        PSCENC =        47.94900195
  Ewald energy   TEWEN  =     46588.29822549
  -Hartree energ DENC   =    -53550.82226252
  -exchange      EXHF   =         0.00000000
  -V(xc)+E(xc)   XCENC  =       442.01876571
  PAW double counting   =    101820.62618570  -101537.00840388
  entropy T*S    EENTRO =        -0.00000000
  eigenvalues    EBANDS =     -2659.17699749
  atomic energy  EATOM  =      8420.94593319
  ---------------------------------------------------
  free energy    TOTEN  =      -427.16955185 eV

  energy without entropy =     -427.16955185  energy(sigma->0) =     -427.16955185


--------------------------------------------------------------------------------------------------------




--------------------------------------- Iteration      1(  18)  ---------------------------------------


    POTLOK:  cpu time    4.2914: real time    4.3213
    SETDIJ:  cpu time    0.0542: real time    0.0544
    TRIAL :  cpu time    1.1515: real time    1.1629
    CORREC:  cpu time    4.7514: real time    4.7921
    CHARGE:  cpu time    0.1778: real time    0.1798
    --------------------------------------------
      LOOP:  cpu time   10.4641: real time   10.5531

 eigenvalue-minimisations  :     0
 total energy-change (2. order) :-0.1260082E-03  (-0.4704504E-04)
 number of electron     216.0000000 magnetization 
 augmentation part       -0.3996465 magnetization 

 Free energy of the ion-electron system (eV)
  ---------------------------------------------------
  alpha Z        PSCENC =        47.94900195
  Ewald energy   TEWEN  =     46588.29822549
  -Hartree energ DENC   =    -53550.83696439
  -exchange      EXHF   =         0.00000000
  -V(xc)+E(xc)   XCENC  =       442.01921444
  PAW double counting   =    101812.47464651  -101528.85585039
  entropy T*S    EENTRO =        -0.00000000
  eigenvalues    EBANDS =     -2659.16388467
  atomic energy  EATOM  =      8420.94593319
  ---------------------------------------------------
  free energy    TOTEN  =      -427.16967786 eV

  energy without entropy =     -427.16967786  energy(sigma->0) =     -427.16967786


--------------------------------------------------------------------------------------------------------




--------------------------------------- Iteration      1(  19)  ---------------------------------------


    POTLOK:  cpu time    4.2876: real time    4.3174
    SETDIJ:  cpu time    0.0542: real time    0.0544
    TRIAL :  cpu time    1.1664: real time    1.1775
    CORREC:  cpu time    4.7619: real time    4.7977
    CHARGE:  cpu time    0.1795: real time    0.1813
    --------------------------------------------
      LOOP:  cpu time   10.5394: real time   10.6232

 eigenvalue-minimisations  :     0
 total energy-change (2. order) :-0.4673810E-04  (-0.1894466E-04)
 number of electron     216.0000000 magnetization 
 augmentation part       -0.3997354 magnetization 

 Free energy of the ion-electron system (eV)
  ---------------------------------------------------
  alpha Z        PSCENC =        47.94900195
  Ewald energy   TEWEN  =     46588.29822549
  -Hartree energ DENC   =    -53550.84874127
  -exchange      EXHF   =         0.00000000
  -V(xc)+E(xc)   XCENC  =       442.01929795
  PAW double counting   =    101826.42057833  -101542.80112460
  entropy T*S    EENTRO =        -0.00000000
  eigenvalues    EBANDS =     -2659.15289565
  atomic energy  EATOM  =      8420.94593319
  ---------------------------------------------------
  free energy    TOTEN  =      -427.16972460 eV

  energy without entropy =     -427.16972460  energy(sigma->0) =     -427.16972460


--------------------------------------------------------------------------------------------------------




--------------------------------------- Iteration      1(  20)  ---------------------------------------


    POTLOK:  cpu time    4.3003: real time    4.3318
    SETDIJ:  cpu time    0.0543: real time    0.0545
    TRIAL :  cpu time    1.1563: real time    1.1675
    CORREC:  cpu time    4.7534: real time    4.7900
    CHARGE:  cpu time    0.1776: real time    0.1794
    --------------------------------------------
      LOOP:  cpu time   10.4690: real time   10.5531

 eigenvalue-minimisations  :     0
 total energy-change (2. order) :-0.1873421E-04  (-0.1063602E-04)
 number of electron     216.0000000 magnetization 
 augmentation part       -0.3997669 magnetization 

 Free energy of the ion-electron system (eV)
  ---------------------------------------------------
  alpha Z        PSCENC =        47.94900195
  Ewald energy   TEWEN  =     46588.29822549
  -Hartree energ DENC   =    -53550.85548013
  -exchange      EXHF   =         0.00000000
  -V(xc)+E(xc)   XCENC  =       442.01941645
  PAW double counting   =    101838.10791313  -101554.48833040
  entropy T*S    EENTRO =        -0.00000000
  eigenvalues    EBANDS =     -2659.14642301
  atomic energy  EATOM  =      8420.94593319
  ---------------------------------------------------
  free energy    TOTEN  =      -427.16974333 eV

  energy without entropy =     -427.16974333  energy(sigma->0) =     -427.16974333


--------------------------------------------------------------------------------------------------------




--------------------------------------- Iteration      1(  21)  ---------------------------------------


    POTLOK:  cpu time    4.2720: real time    4.3018
    SETDIJ:  cpu time    0.0541: real time    0.0543
    TRIAL :  cpu time    1.1553: real time    1.1668
    CORREC:  cpu time    4.7384: real time    4.7759
    CHARGE:  cpu time    0.1790: real time    0.1808
    --------------------------------------------
      LOOP:  cpu time   10.4604: real time   10.5432

 eigenvalue-minimisations  :     0
 total energy-change (2. order) :-0.1051759E-04  (-0.6211050E-05)
 number of electron     216.0000000 magnetization 
 augmentation part       -0.3997568 magnetization 

 Free energy of the ion-electron system (eV)
  ---------------------------------------------------
  alpha Z        PSCENC =        47.94900195
  Ewald energy   TEWEN  =     46588.29822549
  -Hartree energ DENC   =    -53550.84020088
  -exchange      EXHF   =         0.00000000
  -V(xc)+E(xc)   XCENC  =       442.01908906
  PAW double counting   =    101843.99168017  -101560.37222023
  entropy T*S    EENTRO =        -0.00000000
  eigenvalues    EBANDS =     -2659.16126261
  atomic energy  EATOM  =      8420.94593319
  ---------------------------------------------------
  free energy    TOTEN  =      -427.16975385 eV

  energy without entropy =     -427.16975385  energy(sigma->0) =     -427.16975385


--------------------------------------------------------------------------------------------------------




--------------------------------------- Iteration      1(  22)  ---------------------------------------


    POTLOK:  cpu time    4.3165: real time    4.3476
    SETDIJ:  cpu time    0.0541: real time    0.0542
    TRIAL :  cpu time    1.1570: real time    1.1693
    CORREC:  cpu time    4.7942: real time    4.8311
    CHARGE:  cpu time    0.1785: real time    0.1802
    --------------------------------------------
      LOOP:  cpu time   10.5610: real time   10.6695

 eigenvalue-minimisations  :     0
 total energy-change (2. order) :-0.6172311E-05  (-0.2690118E-05)
 number of electron     216.0000000 magnetization 
 augmentation part       -0.3997361 magnetization 

 Free energy of the ion-electron system (eV)
  ---------------------------------------------------
  alpha Z        PSCENC =        47.94900195
  Ewald energy   TEWEN  =     46588.29822549
  -Hartree energ DENC   =    -53550.81096921
  -exchange      EXHF   =         0.00000000
  -V(xc)+E(xc)   XCENC  =       442.01822456
  PAW double counting   =    101843.69312873  -101560.07381093
  entropy T*S    EENTRO =        -0.00000000
  eigenvalues    EBANDS =     -2659.18949380
  atomic energy  EATOM  =      8420.94593319
  ---------------------------------------------------
  free energy    TOTEN  =      -427.16976002 eV

  energy without entropy =     -427.16976002  energy(sigma->0) =     -427.16976002


--------------------------------------------------------------------------------------------------------




--------------------------------------- Iteration      1(  23)  ---------------------------------------


    POTLOK:  cpu time    4.2867: real time    4.3215
    SETDIJ:  cpu time    0.0542: real time    0.0544
    TRIAL :  cpu time    1.1536: real time    1.1655
    CORREC:  cpu time    4.7538: real time    4.7936
    CHARGE:  cpu time    0.1776: real time    0.1795
    --------------------------------------------
      LOOP:  cpu time   10.4629: real time   10.5541

 eigenvalue-minimisations  :     0
 total energy-change (2. order) :-0.2708024E-05  (-0.1049811E-05)
 number of electron     216.0000000 magnetization 
 augmentation part       -0.3997291 magnetization 

 Free energy of the ion-electron system (eV)
  ---------------------------------------------------
  alpha Z        PSCENC =        47.94900195
  Ewald energy   TEWEN  =     46588.29822549
  -Hartree energ DENC   =    -53550.80592904
  -exchange      EXHF   =         0.00000000
  -V(xc)+E(xc)   XCENC  =       442.01820580
  PAW double counting   =    101841.68202417  -101558.06281015
  entropy T*S    EENTRO =        -0.00000000
  eigenvalues    EBANDS =     -2659.19441414
  atomic energy  EATOM  =      8420.94593319
  ---------------------------------------------------
  free energy    TOTEN  =      -427.16976273 eV

  energy without entropy =     -427.16976273  energy(sigma->0) =     -427.16976273


--------------------------------------------------------------------------------------------------------




--------------------------------------- Iteration      1(  24)  ---------------------------------------


    POTLOK:  cpu time    4.2894: real time    4.3216
    SETDIJ:  cpu time    0.0544: real time    0.0547
    TRIAL :  cpu time    1.1544: real time    1.1657
    CORREC:  cpu time    4.7625: real time    4.8022
    CHARGE:  cpu time    0.1788: real time    0.1805
    --------------------------------------------
      LOOP:  cpu time   10.4653: real time   10.5550

 eigenvalue-minimisations  :     0
 total energy-change (2. order) :-0.1059670E-05  (-0.4804162E-06)
 number of electron     216.0000000 magnetization 
 augmentation part       -0.3997287 magnetization 

 Free energy of the ion-electron system (eV)
  ---------------------------------------------------
  alpha Z        PSCENC =        47.94900195
  Ewald energy   TEWEN  =     46588.29822549
  -Hartree energ DENC   =    -53550.80228184
  -exchange      EXHF   =         0.00000000
  -V(xc)+E(xc)   XCENC  =       442.01821908
  PAW double counting   =    101840.76853606  -101557.14931575
  entropy T*S    EENTRO =        -0.00000000
  eigenvalues    EBANDS =     -2659.19808197
  atomic energy  EATOM  =      8420.94593319
  ---------------------------------------------------
  free energy    TOTEN  =      -427.16976379 eV

  energy without entropy =     -427.16976379  energy(sigma->0) =     -427.16976379


--------------------------------------------------------------------------------------------------------




--------------------------------------- Iteration      1(  25)  ---------------------------------------


    POTLOK:  cpu time    4.2766: real time    4.3099
    SETDIJ:  cpu time    0.0541: real time    0.0543
    TRIAL :  cpu time    1.1556: real time    1.1681
    CORREC:  cpu time    4.7487: real time    4.7897
    CHARGE:  cpu time    0.1780: real time    0.1798
    --------------------------------------------
      LOOP:  cpu time   10.4459: real time   10.5450

 eigenvalue-minimisations  :     0
 total energy-change (2. order) :-0.4901376E-06  (-0.2178572E-06)
 number of electron     216.0000000 magnetization 
 augmentation part       -0.3997278 magnetization 

 Free energy of the ion-electron system (eV)
  ---------------------------------------------------
  alpha Z        PSCENC =        47.94900195
  Ewald energy   TEWEN  =     46588.29822549
  -Hartree energ DENC   =    -53550.79983774
  -exchange      EXHF   =         0.00000000
  -V(xc)+E(xc)   XCENC  =       442.01822814
  PAW double counting   =    101840.61843950  -101556.99917987
  entropy T*S    EENTRO =        -0.00000000
  eigenvalues    EBANDS =     -2659.20057494
  atomic energy  EATOM  =      8420.94593319
  ---------------------------------------------------
  free energy    TOTEN  =      -427.16976428 eV

  energy without entropy =     -427.16976428  energy(sigma->0) =     -427.16976428


--------------------------------------------------------------------------------------------------------




--------------------------------------- Iteration      1(  26)  ---------------------------------------


    POTLOK:  cpu time    4.2714: real time    4.3055
    SETDIJ:  cpu time    0.0541: real time    0.0543
    TRIAL :  cpu time    1.1524: real time    1.1649
    CORREC:  cpu time    4.7535: real time    4.7932
    CHARGE:  cpu time    0.1774: real time    0.1795
    --------------------------------------------
      LOOP:  cpu time   10.4656: real time   10.5597

 eigenvalue-minimisations  :     0
 total energy-change (2. order) :-0.2225570E-06  (-0.1019711E-06)
 number of electron     216.0000000 magnetization 
 augmentation part       -0.3997260 magnetization 

 Free energy of the ion-electron system (eV)
  ---------------------------------------------------
  alpha Z        PSCENC =        47.94900195
  Ewald energy   TEWEN  =     46588.29822549
  -Hartree energ DENC   =    -53550.80271611
  -exchange      EXHF   =         0.00000000
  -V(xc)+E(xc)   XCENC  =       442.01830337
  PAW double counting   =    101840.65823103  -101557.03895676
  entropy T*S    EENTRO =        -0.00000000
  eigenvalues    EBANDS =     -2659.19778666
  atomic energy  EATOM  =      8420.94593319
  ---------------------------------------------------
  free energy    TOTEN  =      -427.16976450 eV

  energy without entropy =     -427.16976450  energy(sigma->0) =     -427.16976450


--------------------------------------------------------------------------------------------------------




--------------------------------------- Iteration      1(  27)  ---------------------------------------


    POTLOK:  cpu time    4.2662: real time    4.3033
    SETDIJ:  cpu time    0.0540: real time    0.0543
    TRIAL :  cpu time    1.1515: real time    1.1652
    CORREC:  cpu time    4.7437: real time    4.7875
    CHARGE:  cpu time    0.1779: real time    0.1800
    --------------------------------------------
      LOOP:  cpu time   10.4638: real time   10.5616

 eigenvalue-minimisations  :     0
 total energy-change (2. order) :-0.1038861E-06  (-0.4770329E-07)
 number of electron     216.0000000 magnetization 
 augmentation part       -0.3997246 magnetization 

 Free energy of the ion-electron system (eV)
  ---------------------------------------------------
  alpha Z        PSCENC =        47.94900195
  Ewald energy   TEWEN  =     46588.29822549
  -Hartree energ DENC   =    -53550.80477744
  -exchange      EXHF   =         0.00000000
  -V(xc)+E(xc)   XCENC  =       442.01833667
  PAW double counting   =    101840.73100415  -101557.11173116
  entropy T*S    EENTRO =        -0.00000000
  eigenvalues    EBANDS =     -2659.19575746
  atomic energy  EATOM  =      8420.94593319
  ---------------------------------------------------
  free energy    TOTEN  =      -427.16976460 eV

  energy without entropy =     -427.16976460  energy(sigma->0) =     -427.16976460


--------------------------------------------------------------------------------------------------------




--------------------------------------- Iteration      1(  28)  ---------------------------------------


    POTLOK:  cpu time    4.2959: real time    4.3281
    SETDIJ:  cpu time    0.0542: real time    0.0544
    TRIAL :  cpu time    1.1519: real time    1.1650
    CORREC:  cpu time    4.7678: real time    4.8064
    EDDIAG:  cpu time    0.4364: real time    0.4411
    CHARGE:  cpu time    0.1767: real time    0.1784
[...]
      21 -86.0126      22 -86.0130      23 -86.0343      24 -86.0335      25 -86.0150
      26 -86.0168      27 -86.0186      28 -86.0250      29 -86.0144      30 -86.0151
      31 -86.0303      32 -86.0248      33 -86.0189      34 -86.0163      35 -86.0156
      36 -86.0174      37 -86.0195      38 -86.0215      39 -86.0217      40 -86.0205
      41 -86.0209      42 -86.0230      43 -86.0183      44 -86.0228      45 -86.0149
      46 -86.0147      47 -86.0177      48 -86.0160      49 -86.0207      50 -86.0191
      51 -89.9523      52-120.4711      53-120.4722
 
 
 
 E-fermi :  -4.4133     XC(G=0):  -2.1461     alpha+bet : -1.6890

 Fermi energy:        -4.4133006204

 k-point     1 :       0.0000    0.0000    0.0000
  band No.  band energies     occupation 
      1     -27.6779      2.00000
      2     -26.6940      2.00000
      3     -22.4509      2.00000
      4     -21.5199      2.00000
      5     -21.5171      2.00000
      6     -21.5130      2.00000
      7     -21.5128      2.00000
      8     -21.5106      2.00000
      9     -21.5103      2.00000
     10     -19.6797      2.00000
     11     -19.6794      2.00000
     12     -19.6774      2.00000
     13     -19.6772      2.00000
     14     -19.6763      2.00000
     15     -19.6762      2.00000
     16     -18.7846      2.00000
     17     -18.7842      2.00000
     18     -18.7840      2.00000
     19     -18.7830      2.00000
     20     -18.7826      2.00000
     21     -18.7823      2.00000
     22     -16.6254      2.00000
     23     -16.6249      2.00000
     24     -16.6240      2.00000
     25     -16.6235      2.00000
     26     -16.6209      2.00000
     27     -16.6207      2.00000
     28     -15.6539      2.00000
     29     -15.6537      2.00000
     30     -15.6518      2.00000
     31     -15.6517      2.00000
     32     -15.6515      2.00000
     33     -15.6514      2.00000
     34     -14.3052      2.00000
     35     -14.3051      2.00000
     36     -14.3048      2.00000
     37     -14.3043      2.00000
     38     -14.3043      2.00000
     39     -14.3034      2.00000
     40     -12.5310      2.00000
     41     -11.9327      2.00000
     42     -11.9326      2.00000
     43     -11.9317      2.00000
     44     -11.9316      2.00000
     45     -11.9314      2.00000
     46     -11.9312      2.00000
     47     -11.8467      2.00000
     48     -11.8465      2.00000
     49     -11.8451      2.00000
     50     -11.8450      2.00000
     51     -11.8431      2.00000
     52     -11.8429      2.00000
     53     -11.3908      2.00000
     54     -11.3402      2.00000
     55     -11.3255      2.00000
     56     -10.6269      2.00000
     57     -10.4780      2.00000
     58     -10.4777      2.00000
     59     -10.4776      2.00000
     60     -10.4773      2.00000
     61     -10.4764      2.00000
     62     -10.4763      2.00000
     63      -9.5192      2.00000
     64      -9.5185      2.00000
     65      -9.5127      2.00000
     66      -9.5121      2.00000
     67      -9.5091      2.00000
     68      -9.5081      2.00000
     69      -9.2208      2.00000
     70      -9.2186      2.00000
     71      -9.2183      2.00000
     72      -9.2169      2.00000
     73      -9.2166      2.00000
     74      -9.2160      2.00000
     75      -9.1548      2.00000
     76      -9.1547      2.00000
     77      -9.1544      2.00000
     78      -9.1531      2.00000
     79      -9.1524      2.00000
     80      -9.1517      2.00000
     81      -7.8025      2.00000
     82      -7.7913      2.00000
     83      -7.5721      2.00000
     84      -7.5720      2.00000
     85      -7.5717      2.00000
     86      -7.5714      2.00000
     87      -7.5682      2.00000
     88      -7.5682      2.00000
     89      -7.3876      2.00000
     90      -7.3873      2.00000
     91      -7.3812      2.00000
     92      -7.3801      2.00000
     93      -7.3799      2.00000
     94      -7.3706      2.00000
     95      -6.4895      2.00000
     96      -6.4874      2.00000
     97      -6.4860      2.00000
     98      -6.4823      2.00000
     99      -6.4818      2.00000
    100      -6.4797      2.00000
    101      -6.0966      2.00000
    102      -6.0944      2.00000
    103      -4.5037      2.00000
    104      -4.5023      2.00000
    105      -4.5001      2.00000
    106      -4.4993      2.00000
    107      -4.4950      2.00000
    108      -4.4947      2.00000
    109      -1.7090      0.00000
    110      -1.7086      0.00000
    111      -1.7038      0.00000
    112      -1.7032      0.00000
    113      -1.7017      0.00000
    114      -1.7012      0.00000
    115      -0.3052      0.00000
    116       0.1474      0.00000
    117       0.1476      0.00000
    118       0.1497      0.00000
    119       0.1535      0.00000
    120       0.1541      0.00000
    121       0.1570      0.00000
    122       0.3498      0.00000
    123       0.6862      0.00000
    124       0.9194      0.00000
    125       1.0418      0.00000
    126       1.0561      0.00000
    127       1.1620      0.00000
    128       1.1640      0.00000
    129       1.1849      0.00000
    130       1.2192      0.00000
    131       1.2632      0.00000
    132       1.6147      0.00000
    133       1.7247      0.00000
    134       1.8858      0.00000
    135       1.9690      0.00000
    136       2.0245      0.00000


--------------------------------------------------------------------------------------------------------


 soft charge-density along one line, spin component           1
         0         1         2         3         4         5         6         7         8         9
 total charge-density along one line
 
 pseudopotential strength for first ion, spin component:           1
 12.717  21.400  -0.000   0.000   0.000  -0.000   0.000   0.000
 21.400  36.010  -0.000   0.000   0.000  -0.000   0.000   0.000
 -0.000  -0.000  -3.220  -0.000   0.000  -5.771  -0.000   0.000
  0.000   0.000  -0.000  -3.224  -0.000  -0.000  -5.779  -0.000
  0.000   0.000   0.000  -0.000  -3.220   0.000  -0.000  -5.771
 -0.000  -0.000  -5.771  -0.000   0.000 -10.322  -0.000   0.000
  0.000   0.000  -0.000  -5.779  -0.000  -0.000 -10.335  -0.000
  0.000   0.000   0.000  -0.000  -5.771   0.000  -0.000 -10.322
 total augmentation occupancy for first ion, spin component:           1
  7.414  -2.550  -0.000  -0.002   0.000   0.000   0.001  -0.000
 -2.550   0.916   0.000   0.001  -0.000  -0.000  -0.000   0.000
 -0.000   0.000   6.889  -0.007   0.000  -2.287   0.003  -0.000
 -0.002   0.001  -0.007   2.993  -0.000   0.003  -0.763   0.000
  0.000  -0.000   0.000  -0.000   6.889  -0.000   0.000  -2.287
  0.000  -0.000  -2.287   0.003  -0.000   0.775  -0.001   0.000
  0.001  -0.000   0.003  -0.763   0.000  -0.001   0.202  -0.000
 -0.000   0.000  -0.000   0.000  -2.287   0.000  -0.000   0.775


------------------------ aborting loop because EDIFF is reached ----------------------------------------


    FORLOC:  cpu time    0.0667: real time    0.0673
    FORNL :  cpu time    0.8427: real time    0.8472
    FORCOR:  cpu time    4.3639: real time    4.3950
    OFIELD:  cpu time    0.0017: real time    0.0017

 VOLUME and BASIS-vectors are now :
 -----------------------------------------------------------------------------
  energy-cutoff  :     1000.00
  volume of cell :     3288.85
      direct lattice vectors                 reciprocal lattice vectors
    12.325000000  0.000000000  0.000000000     0.081135903  0.046843835  0.000000000
    -6.162500000 10.673763102  0.000000000     0.000000000  0.093687670  0.000000000
     0.000000000  0.000000000 25.000000000     0.000000000  0.000000000  0.040000000

  length of vectors
    12.325000000 12.325000000 25.000000000     0.093687670  0.093687670  0.040000000


 FORCES acting on ions:
    Electron-Ion                     Ewald-Force                    Non-Local-Force
 -----------------------------------------------------------------------------------------------
   0.846E+01 0.740E+01 0.257E+02   -.847E+01 -.739E+01 -.257E+02   0.126E-01 -.304E-02 0.103E-01
   0.133E+02 0.653E+01 0.319E+02   -.133E+02 -.653E+01 -.319E+02   0.170E-01 -.905E-02 -.578E-02
   0.626E+01 0.163E+02 0.377E+02   -.626E+01 -.163E+02 -.377E+02   -.177E-02 0.341E-01 0.230E-01
   0.926E+01 0.135E+02 0.544E+02   -.929E+01 -.135E+02 -.545E+02   0.347E-01 0.128E-01 0.487E-01
   0.913E+01 0.215E+01 0.259E+02   -.913E+01 -.215E+01 -.259E+02   0.450E-02 -.134E-01 -.367E-02
   0.950E+01 -.169E+01 0.263E+02   -.949E+01 0.170E+01 -.263E+02   -.126E-01 -.108E-02 -.130E-01
   0.165E+02 0.639E+01 0.484E+02   -.165E+02 -.636E+01 -.484E+02   0.402E-01 -.403E-01 0.515E-02
   0.161E+02 -.558E+01 0.506E+02   -.161E+02 0.561E+01 -.506E+02   0.120E-01 -.225E-01 -.340E-01
   -.713E+01 0.148E+02 0.382E+02   0.715E+01 -.148E+02 -.382E+02   -.156E-01 -.392E-02 -.191E-01
   -.121E+02 0.103E+02 0.526E+02   0.122E+02 -.103E+02 -.526E+02   -.589E-01 0.362E-01 -.468E-02
   0.229E+01 -.209E+01 0.217E+02   -.228E+01 0.209E+01 -.217E+02   -.195E-02 0.649E-03 -.524E-02
   0.187E+01 -.153E+01 0.205E+02   -.186E+01 0.153E+01 -.205E+02   -.134E-01 0.586E-02 0.183E-02
   0.635E+01 -.144E+02 0.563E+02   -.640E+01 0.144E+02 -.562E+02   0.634E-01 -.273E-01 -.100E-01
   0.316E+01 -.163E+02 0.385E+02   -.318E+01 0.163E+02 -.385E+02   0.198E-01 -.933E-03 -.264E-01
   -.816E+01 0.510E+01 0.252E+02   0.816E+01 -.510E+01 -.252E+02   0.111E-01 -.556E-02 -.459E-02
   -.118E+02 0.339E+01 0.285E+02   0.118E+02 -.339E+01 -.285E+02   -.480E-02 0.109E-01 -.192E-01
   -.129E+01 -.524E+00 0.198E+02   0.130E+01 0.520E+00 -.198E+02   -.590E-02 0.174E-02 0.107E-02
   0.678E+00 0.468E+01 0.208E+02   -.673E+00 -.468E+01 -.208E+02   -.751E-02 0.396E-02 0.889E-02
   -.238E+01 -.141E+02 0.309E+02   0.236E+01 0.141E+02 -.309E+02   0.191E-01 -.799E-02 0.463E-02
   -.109E+01 -.718E+01 0.227E+02   0.108E+01 0.719E+01 -.227E+02   0.556E-02 -.565E-02 -.178E-02
   0.136E+02 -.595E+01 0.340E+02   -.136E+02 0.595E+01 -.339E+02   -.299E-03 -.669E-02 -.382E-01
   0.840E+01 -.717E+01 0.279E+02   -.839E+01 0.716E+01 -.279E+02   -.966E-02 0.105E-01 -.158E-01
   -.311E+01 0.648E+01 0.656E+02   0.314E+01 -.650E+01 -.656E+02   -.336E-01 0.307E-01 0.767E-01
   -.485E+01 -.102E+02 0.631E+02   0.483E+01 0.103E+02 -.631E+02   0.253E-01 -.413E-01 0.617E-01
   0.405E+01 -.174E+01 0.218E+02   -.404E+01 0.173E+01 -.218E+02   -.447E-02 0.373E-03 -.937E-02
   0.795E+00 0.361E+01 0.220E+02   -.789E+00 -.362E+01 -.220E+02   -.114E-01 0.618E-02 -.209E-03
   -.169E+02 0.213E+01 0.413E+02   0.169E+02 -.215E+01 -.413E+02   -.416E-02 0.211E-01 -.165E-01
   -.158E+02 -.655E+01 0.382E+02   0.158E+02 0.653E+01 -.383E+02   -.297E-01 0.216E-01 0.107E-01
   0.508E+01 -.103E+02 0.290E+02   -.509E+01 0.103E+02 -.290E+02   0.117E-01 0.395E-02 -.193E-01
   0.469E+00 -.398E+01 0.231E+02   -.476E+00 0.398E+01 -.231E+02   -.532E-03 0.571E-02 -.887E-02
   -.124E+02 -.132E+02 0.456E+02   0.124E+02 0.132E+02 -.457E+02   -.324E-01 -.202E-01 0.304E-01
   -.750E+01 -.137E+02 0.326E+02   0.750E+01 0.137E+02 -.326E+02   0.156E-03 -.186E-01 0.163E-01
   0.495E+00 0.200E+01 0.204E+02   -.501E+00 -.199E+01 -.204E+02   0.108E-01 -.745E-02 0.394E-02
   0.136E+01 0.200E+01 0.217E+02   -.137E+01 -.200E+01 -.216E+02   0.427E-04 0.295E-03 -.564E-02
   -.572E+01 0.765E+00 0.233E+02   0.572E+01 -.770E+00 -.233E+02   0.685E-02 0.557E-03 -.128E-02
   -.496E+01 -.201E+01 0.228E+02   0.497E+01 0.201E+01 -.228E+02   -.102E-01 0.684E-02 -.154E-02
   -.996E+01 -.518E+01 0.262E+02   0.998E+01 0.517E+01 -.262E+02   -.127E-01 0.328E-02 0.236E-02
   -.592E+01 -.478E+01 0.225E+02   0.592E+01 0.478E+01 -.225E+02   -.100E-01 0.240E-02 0.101E-01
   -.551E+01 -.718E+01 0.239E+02   0.552E+01 0.718E+01 -.239E+02   -.946E-02 -.498E-02 0.811E-02
   -.820E+00 -.174E+01 0.208E+02   0.819E+00 0.175E+01 -.209E+02   0.282E-02 -.177E-02 0.847E-02
   0.207E+01 0.501E+01 0.216E+02   -.207E+01 -.502E+01 -.216E+02   -.478E-02 0.745E-02 0.833E-02
   0.673E+01 0.105E+02 0.271E+02   -.673E+01 -.106E+02 -.271E+02   0.780E-02 0.752E-02 0.148E-01
   0.550E+00 0.879E+01 0.236E+02   -.540E+00 -.880E+01 -.236E+02   -.703E-02 0.722E-02 -.371E-03
   -.216E-01 0.156E+02 0.331E+02   0.430E-01 -.156E+02 -.331E+02   -.247E-01 0.112E-01 0.815E-02
   -.166E+01 0.328E+01 0.230E+02   0.167E+01 -.328E+01 -.230E+02   0.181E-02 -.521E-02 -.602E-02
   -.684E+01 0.862E+01 0.276E+02   0.685E+01 -.862E+01 -.276E+02   -.114E-01 0.765E-03 -.149E-01
   -.126E+01 -.346E+01 0.215E+02   0.125E+01 0.346E+01 -.215E+02   0.127E-01 -.286E-02 0.146E-02
   -.319E+01 0.127E+01 0.207E+02   0.318E+01 -.127E+01 -.207E+02   0.364E-02 0.784E-03 -.790E-02
   0.273E+00 -.216E+01 0.205E+02   -.277E+00 0.216E+01 -.205E+02   0.770E-02 -.420E-02 0.594E-02
   0.340E+01 0.248E+01 0.207E+02   -.341E+01 -.248E+01 -.207E+02   0.590E-02 0.121E-02 0.316E-02
   0.803E-01 -.570E-01 -.384E+03   -.750E-01 0.542E-01 0.384E+03   -.573E-02 0.357E-02 -.281E-01
   -.229E+03 0.156E+03 -.590E+03   0.279E+03 -.190E+03 0.593E+03   -.511E+02 0.348E+02 -.344E+01
   0.229E+03 -.156E+03 -.567E+03   -.279E+03 0.190E+03 0.564E+03   0.511E+02 -.348E+02 0.306E+01
 -----------------------------------------------------------------------------------------------
   0.121E-01 0.231E-02 0.330E+00   0.114E-12 -.142E-12 -.682E-12   -.121E-01 -.242E-02 -.331E+00
 
 
 POSITION                                       TOTAL-FORCE (eV/Angst)
 -----------------------------------------------------------------------------------
     11.98348      0.00342      0.01417         0.002474     -0.000225     -0.000676
     -0.34154      1.42665      0.01100        -0.002191      0.000125     -0.000774
      2.12355      0.00315      0.01249         0.000017      0.002116     -0.000839
      2.12326      1.42653      0.00641         0.004207      0.000428      0.004262
     10.75099      2.13819      0.01213         0.000540     -0.004415      0.001109
     -1.57382      3.56123      0.01110        -0.005723      0.005891     -0.000358
      0.89078      2.13854      0.00548         0.003074     -0.008021      0.006974
      0.89099      3.56147      0.00181        -0.010566      0.001317      0.012747
      4.58864      0.00346      0.01135         0.005210     -0.011943     -0.000643
      4.58894      1.42623      0.00646        -0.011480      0.006790      0.016371
      9.51854      4.27281      0.01369         0.007131     -0.004750      0.000362
     -2.80632      5.69591      0.01434        -0.006686      0.003580      0.000989
      2.12300      4.27302      0.00000         0.010494     -0.001330      0.021459
      2.12335      5.69594      0.00581        -0.002401      0.005954      0.000598
      7.05344      0.00333      0.01399         0.007193     -0.003684      0.000729
      7.05353      1.42635      0.01368        -0.002968      0.004361     -0.001744
      8.28610      6.40752      0.01601         0.003471     -0.001566     -0.000564
     -4.03885      7.83070      0.01636        -0.001781      0.001508     -0.000058
      3.35586      6.40753      0.01007         0.002149      0.000042      0.000215
      3.35599      7.83072      0.01320        -0.003236      0.000812     -0.000048
     -0.34146      4.27290      0.00723         0.001754     -0.002704     -0.001479
     -0.34138      5.69591      0.00946        -0.007429      0.003799      0.000714
      3.35624      2.13791      0.00222        -0.003353      0.004689      0.028049
      3.35573      3.56155      0.00139         0.004784     -0.006775      0.020336
     -1.57395      6.40758      0.01311         0.007711     -0.004240     -0.000493
     -1.57385      7.83068      0.01438        -0.004665      0.003990      0.000362
      5.82093      2.13784      0.01033         0.013147      0.001152     -0.000153
      5.82114      3.56097      0.01156        -0.002687      0.003014      0.000065
      0.89092      6.40755      0.00907         0.004108      0.000535     -0.000058
      0.89106      7.83068      0.01235        -0.007580      0.001736      0.000542
      4.58871      4.27293      0.00850        -0.003872     -0.003733     -0.001542
      4.58852      5.69606      0.01149         0.001426      0.003850     -0.001077
      9.51845      0.00337      0.01490         0.004795     -0.004838      0.000345
      9.51855      1.42644      0.01438        -0.004669      0.006976     -0.000214
      8.28593      2.13803      0.01453         0.004462     -0.004397      0.000963
      8.28613      3.56115      0.01464        -0.004338      0.001679      0.000387
      7.05356      4.27269      0.01457         0.004019     -0.000522      0.000547
      7.05362      5.69588      0.01553        -0.002374      0.000666     -0.000063
      5.82112      6.40755      0.01489        -0.001363      0.001952      0.000234
      5.82102      7.83073      0.01579         0.002176      0.000946     -0.000269
      7.05363      8.54227      0.01631        -0.003995      0.000010      0.001205
     -5.27149      9.96549      0.01495        -0.001699     -0.002984     -0.001314
     -2.80638      8.54234      0.01558         0.003169     -0.002041     -0.000469
     -2.80627      9.96553      0.01362        -0.002653      0.000243     -0.001439
     -0.34149      8.54239      0.01378         0.005896     -0.002811      0.000545
     -0.34138      9.96550      0.01354        -0.006037      0.001556      0.000449
      2.12343      8.54232      0.01336         0.005834     -0.001594      0.000989
      2.12354      9.96544      0.01469        -0.006956      0.004405     -0.001807
      4.58846      8.54235      0.01505         0.003684     -0.003154      0.001027
      4.58853      9.96550      0.01517        -0.003501      0.003116      0.000505
      3.04930      2.68154      3.74577        -0.000236      0.000713     -0.027285
      4.02070      2.02068      3.81019        -0.562903      0.383578     -0.074322
      2.07767      3.34267      3.68631         0.564416     -0.385805     -0.005392
 -----------------------------------------------------------------------------------
    total drift:                                0.000002     -0.000103     -0.000513


--------------------------------------------------------------------------------------------------------



  FREE ENERGIE OF THE ION-ELECTRON SYSTEM (eV)
  ---------------------------------------------------
  free  energy   TOTEN  =      -427.16976465 eV

  energy  without entropy=     -427.16976465  energy(sigma->0) =     -427.16976465
 


--------------------------------------------------------------------------------------------------------


    POTLOK:  cpu time    4.3210: real time    4.3568


--------------------------------------------------------------------------------------------------------


 writing wavefunctions
     LOOP+:  cpu time  298.9447: real time  301.6925
    4ORBIT:  cpu time    0.0000: real time    0.0000

 total amount of memory used by VASP MPI-rank0   100580. kBytes
=======================================================================

   base      :      30000. kBytes
   nonl-proj :       8229. kBytes
   fftplans  :      18352. kBytes
   grid      :      30208. kBytes
   one-center:          6. kBytes
   wavefun   :      13785. kBytes
 
  
  
 General timing and accounting informations for this job:
 ========================================================
  
                  Total CPU time used (sec):      345.509
                            User time (sec):      322.117
                          System time (sec):       23.392
                         Elapsed time (sec):      349.472
  
                   Maximum memory used (kb):      777752.
                   Average memory used (kb):          N/A
  
                          Minor page faults:       429260
                          Major page faults:           95
                 Voluntary context switches:         3792
