 vasp.6.2.1 16May21 (build Nov 06 2021 14:46:37) complex                        
  
 executed on             LinuxIFC date 2025.03.03  17:21:18
 running on  112 total cores
 distrk:  each k-point on  112 cores,    1 groups
 distr:  one band on NCORE=  28 cores,    4 groups


--------------------------------------------------------------------------------------------------------


 INCAR:
   ALGO = Conjugate
   NPAR = 4
   ISMEAR = 0
   SIGMA = 0.01
   PREC = Accurate
   EDIFF = 1E-7
   ENCUT = 1000
   ISIF = 0
   GGA = MK
   LUSE_VDW = .TRUE.
   PARAM1 = 0.1234
   PARAM2 = 0.711357
   ZAB_VDW = -1.8867
   AGGAC = 0.0000
   LASPH = .TRUE.

 POTCAR:    PAW_PBE C_h 06Feb2004                 
 POTCAR:    PAW_PBE O_h 06Feb2004                 
 -----------------------------------------------------------------------------
|                                                                             |
|           W    W    AA    RRRRR   N    N  II  N    N   GGGG   !!!           |
|           W    W   A  A   R    R  NN   N  II  NN   N  G    G  !!!           |
|           W    W  A    A  R    R  N N  N  II  N N  N  G       !!!           |
|           W WW W  AAAAAA  RRRRR   N  N N  II  N  N N  G  GGG   !            |
|           WW  WW  A    A  R   R   N   NN  II  N   NN  G    G                |
|           W    W  A    A  R    R  N    N  II  N    N   GGGG   !!!           |
|                                                                             |
|     For optimal performance we recommend to set                             |
|       NCORE = 2 up to number-of-cores-per-socket                            |
|     NCORE specifies how many cores store one orbital (NPAR=cpu/NCORE).      |
|     This setting can greatly improve the performance of VASP for DFT.       |
|     The default, NCORE=1 might be grossly inefficient on modern             |
|     multi-core architectures or massively parallel machines. Do your        |
|     own testing! More info at https://www.vasp.at/wiki/index.php/NCORE      |
|     Unfortunately you need to use the default for GW and RPA                |
|     calculations (for HF NCORE is supported but not extensively tested      |
|     yet).                                                                   |
|                                                                             |
 -----------------------------------------------------------------------------

 -----------------------------------------------------------------------------
|                                                                             |
|               ----> ADVICE to this user running VASP <----                  |
|                                                                             |
|     You have switched on vdW-DFT.                                           |
|     This routine was written and supplied by Jiri Klimes. We recommend      |
|     that you carefully read and cite the following publications:            |
|       J. Klimes, D.R. Bowler, A. Michelides                                 |
|          J. Phys.: Cond Matt. 22 022201 (2010)                              |
|       J. Klimes, D.R. Bowler, A. Michelides                                 |
|          Phys. Rev. B. 83, 195131 (2011)                                    |
|     and references therein.                                                 |
|                                                                             |
 -----------------------------------------------------------------------------

 POTCAR:    PAW_PBE C_h 06Feb2004                 
   VRHFIN =C: s2p2                                                                                  
   LEXCH  = PE                                                                                      
   EATOM  =   147.1560 eV,   10.8157 Ry                                                             
                                                                                                    
   TITEL  = PAW_PBE C_h 06Feb2004                                                                   
   LULTRA =        F    use ultrasoft PP ?                                                          
   IUNSCR =        1    unscreen: 0-lin 1-nonlin 2-no                                               
   RPACOR =    0.800    partial core radius                                                         
   POMASS =   12.011; ZVAL   =    4.000    mass and valenz                                          
   RCORE  =    1.100    outmost cutoff radius                                                       
   RWIGS  =    1.630; RWIGS  =    0.863    wigner-seitz radius (au A)                               
   ENMAX  =  700.000; ENMIN  =  500.000 eV                                                          
   ICORE  =        2    local potential                                                             
   LCOR   =        T    correct aug charges                                                         
   LPAW   =        T    paw PP                                                                      
   EAUG   =  946.768                                                                                
   DEXC   =    0.000                                                                                
   RMAX   =    1.128    core radius for proj-oper                                                   
   RAUG   =    1.300    factor for augmentation sphere                                              
   RDEP   =    1.162    radius for radial grids                                                     
   RDEPT  =    1.088    core radius for aug-charge                                                  
                                                                                                    
   Atomic configuration                                                                             
    4 entries                                                                                       
     n  l   j            E        occ.                                                              
     1  0  0.50      -273.3789   2.0000                                                             
     2  0  0.50       -13.7508   2.0000                                                             
     2  1  0.50        -5.2854   2.0000                                                             
     3  2  1.50        -5.4423   0.0000                                                             
   Description                                                                                      
     l       E           TYP  RCUT    TYP  RCUT                                                     
     0    -13.7508458     23  1.100                                                                 
     0     -8.2022199     23  1.100                                                                 
     1     -5.2854383     23  1.100                                                                 
     1      1.1560700     23  1.100                                                                 
     2     -5.4423304      7  1.100                                                                 
  local pseudopotential read in
  partial core-charges read in
  partial kinetic energy density read in
  atomic valenz-charges read in
  non local Contribution for L=           0  read in
    real space projection operators read in
  non local Contribution for L=           0  read in
    real space projection operators read in
  non local Contribution for L=           1  read in
    real space projection operators read in
  non local Contribution for L=           1  read in
    real space projection operators read in
    PAW grid and wavefunctions read in
 
   number of l-projection  operators is LMAX  =           4
   number of lm-projection operators is LMMAX =           8
 
 POTCAR:    PAW_PBE O_h 06Feb2004                 
   VRHFIN =O: s2p4                                                                                  
   LEXCH  = PE                                                                                      
   EATOM  =   432.3788 eV,   31.7789 Ry                                                             
                                                                                                    
   TITEL  = PAW_PBE O_h 06Feb2004                                                                   
   LULTRA =        F    use ultrasoft PP ?                                                          
   IUNSCR =        1    unscreen: 0-lin 1-nonlin 2-no                                               
   RPACOR =    0.800    partial core radius                                                         
   POMASS =   16.000; ZVAL   =    6.000    mass and valenz                                          
   RCORE  =    1.100    outmost cutoff radius                                                       
   RWIGS  =    1.400; RWIGS  =    0.741    wigner-seitz radius (au A)                               
   ENMAX  =  700.000; ENMIN  =  500.000 eV                                                          
   ICORE  =        2    local potential                                                             
   LCOR   =        T    correct aug charges                                                         
   LPAW   =        T    paw PP                                                                      
   EAUG   =  888.804                                                                                
   DEXC   =    0.000                                                                                
   RMAX   =    1.128    core radius for proj-oper                                                   
   RAUG   =    1.300    factor for augmentation sphere                                              
   RDEP   =    1.125    radius for radial grids                                                     
   RDEPT  =    1.088    core radius for aug-charge                                                  
                                                                                                    
   Atomic configuration                                                                             
    4 entries                                                                                       
     n  l   j            E        occ.                                                              
     1  0  0.50      -514.6923   2.0000                                                             
     2  0  0.50       -23.9615   2.0000                                                             
     2  1  0.50        -9.0305   4.0000                                                             
     3  2  1.50        -9.5241   0.0000                                                             
   Description                                                                                      
     l       E           TYP  RCUT    TYP  RCUT                                                     
     0    -23.9615319     23  1.100                                                                 
     0    -25.3221145     23  1.100                                                                 
     1     -9.0304911     23  1.100                                                                 
     1     -5.4802209     23  1.100                                                                 
     2     -9.5240782      7  1.100                                                                 
  local pseudopotential read in
  partial core-charges read in
  partial kinetic energy density read in
  atomic valenz-charges read in
  non local Contribution for L=           0  read in
    real space projection operators read in
  non local Contribution for L=           0  read in
    real space projection operators read in
  non local Contribution for L=           1  read in
    real space projection operators read in
  non local Contribution for L=           1  read in
    real space projection operators read in
    PAW grid and wavefunctions read in
 
   number of l-projection  operators is LMAX  =           4
   number of lm-projection operators is LMMAX =           8
 
 -----------------------------------------------------------------------------
|                                                                             |
|               ----> ADVICE to this user running VASP <----                  |
|                                                                             |
|     You have a (more or less) 'large supercell' and for larger cells it     |
|     might be more efficient to use real-space projection operators.         |
|     Therefore, try LREAL= Auto in the INCAR file.                           |
|     Mind: For very accurate calculation, you might also keep the            |
|     reciprocal projection scheme (i.e. LREAL=.FALSE.).                      |
|                                                                             |
 -----------------------------------------------------------------------------

 -----------------------------------------------------------------------------
|                                                                             |
|               ----> ADVICE to this user running VASP <----                  |
|                                                                             |
|     You enforced a specific xc type in the INCAR file but a different       |
|     type was found in the POTCAR file.                                      |
|     I HOPE YOU KNOW WHAT YOU ARE DOING!                                     |
|                                                                             |
 -----------------------------------------------------------------------------

  PAW_PBE C_h 06Feb2004                 :
 energy of atom  1       EATOM= -147.1560
 kinetic energy error for atom=    0.0031 (will be added to EATOM!!)
  PAW_PBE O_h 06Feb2004                 :
 energy of atom  2       EATOM= -432.3788
 kinetic energy error for atom=    0.0171 (will be added to EATOM!!)
 
 
 POSCAR:  C  O
  positions in cartesian coordinates
  No initial velocities read in
 exchange correlation table for  LEXCH =       43
   RHO(1)=    0.500       N(1)  =     2000
   RHO(2)=  100.500       N(2)  =     4000
 


--------------------------------------------------------------------------------------------------------


 ion  position               nearest neighbor table
   1  0.972  0.000  0.001-  50 1.42   2 1.42  42 1.42
   2  0.039  0.134  0.001-   5 1.42   7 1.42   1 1.42
   3  0.172  0.000  0.001-  42 1.42  44 1.42   4 1.42
   4  0.239  0.134  0.000-   7 1.42   3 1.42  23 1.42
   5  0.972  0.200  0.001-   6 1.42   2 1.42  34 1.42
   6  0.039  0.334  0.001-   5 1.42  21 1.42  11 1.42
   7  0.172  0.200  0.000-   8 1.42   2 1.42   4 1.42
   8  0.239  0.334  0.000-  13 1.42   7 1.42  21 1.42
   9  0.372  0.000  0.001-  10 1.42  44 1.42  46 1.42
  10  0.439  0.134  0.000-  27 1.42   9 1.42  23 1.42
  11  0.972  0.400  0.001-  12 1.42  36 1.42   6 1.42
  12  0.039  0.534  0.001-  25 1.42  11 1.42  17 1.42
  13  0.372  0.400  0.000-   8 1.42  14 1.42  24 1.42
  14  0.439  0.534  0.000-  13 1.42  29 1.42  19 1.42
  15  0.572  0.000  0.001-  46 1.42  16 1.42  48 1.42
  16  0.639  0.134  0.001-  15 1.42  35 1.42  27 1.42
  17  0.972  0.600  0.001-  38 1.42  18 1.42  12 1.42
  18  0.039  0.734  0.001-  43 1.42  41 1.42  17 1.42
  19  0.572  0.600  0.001-  14 1.42  20 1.42  32 1.42
  20  0.639  0.734  0.001-  49 1.42  19 1.42  47 1.42
  21  0.172  0.400  0.000-  22 1.42   8 1.42   6 1.42
  22  0.239  0.534  0.000-  21 1.42  29 1.42  25 1.42
  23  0.372  0.200  0.000-  10 1.42   4 1.42  24 1.42
  24  0.439  0.334  0.000-  13 1.42  31 1.42  23 1.42
  25  0.172  0.600  0.001-  26 1.42  12 1.42  22 1.42
  26  0.239  0.734  0.001-  25 1.42  45 1.42  43 1.42
  27  0.572  0.200  0.001-  10 1.42  28 1.42  16 1.42
  28  0.639  0.334  0.001-  27 1.42  37 1.42  31 1.42
  29  0.372  0.600  0.000-  22 1.42  14 1.42  30 1.42
  30  0.439  0.734  0.001-  47 1.42  29 1.42  45 1.42
  31  0.572  0.400  0.000-  32 1.42  28 1.42  24 1.42
  32  0.639  0.534  0.001-  31 1.42  39 1.42  19 1.42
  33  0.772  0.000  0.001-  34 1.42  48 1.42  50 1.42
  34  0.839  0.134  0.001-  33 1.42   5 1.42  35 1.42
  35  0.772  0.200  0.001-  36 1.42  16 1.42  34 1.42
  36  0.839  0.334  0.001-  35 1.42  11 1.42  37 1.42
  37  0.772  0.400  0.001-  28 1.42  38 1.42  36 1.42
  38  0.839  0.534  0.001-  17 1.42  37 1.42  39 1.42
  39  0.772  0.600  0.001-  40 1.42  38 1.42  32 1.42
  40  0.839  0.734  0.001-  39 1.42  49 1.42  41 1.42
  41  0.972  0.800  0.001-  18 1.42  42 1.42  40 1.42
  42  0.039  0.934  0.001-   3 1.42  41 1.42   1 1.42
  43  0.172  0.800  0.001-  18 1.42  44 1.42  26 1.42
  44  0.239  0.934  0.001-   9 1.42  43 1.42   3 1.42
  45  0.372  0.800  0.001-  26 1.42  46 1.42  30 1.42
  46  0.439  0.934  0.001-  15 1.42  45 1.42   9 1.42
  47  0.572  0.800  0.001-  30 1.42  48 1.42  20 1.42
  48  0.639  0.934  0.001-  47 1.42  33 1.42  15 1.42
  49  0.772  0.800  0.001-  50 1.42  20 1.42  40 1.42
  50  0.839  0.934  0.001-  49 1.42   1 1.42  33 1.42
  51  0.373  0.251  0.140-  52 1.18  53 1.18
  52  0.421  0.189  0.144-  51 1.18
  53  0.325  0.313  0.137-  51 1.18
 
  LATTYP: Found a hexagonal cell.
 ALAT       =    12.3250000000
 C/A-ratio  =     1.6227180527
  
  Lattice vectors:
  
 A1 = (  12.3250000000,   0.0000000000,   0.0000000000)
 A2 = (  -6.1625000000,  10.6737631016,   0.0000000000)
 A3 = (   0.0000000000,   0.0000000000,  20.0000000000)


Analysis of symmetry for initial positions (statically):
=====================================================================
 Subroutine PRICEL returns:
 Original cell was already a primitive cell.
 

 Routine SETGRP: Setting up the symmetry group for a 
 hexagonal supercell.


 Subroutine GETGRP returns: Found  1 space group operations
 (whereof  1 operations were pure point group operations)
 out of a pool of 24 trial point group operations.


The static configuration has the point symmetry C_1 .


Analysis of symmetry for dynamics (positions and initial velocities):
=====================================================================
 Subroutine PRICEL returns:
 Original cell was already a primitive cell.
 

 Routine SETGRP: Setting up the symmetry group for a 
 hexagonal supercell.


 Subroutine GETGRP returns: Found  1 space group operations
 (whereof  1 operations were pure point group operations)
 out of a pool of 24 trial point group operations.


The dynamic configuration has the point symmetry C_1 .


 Subroutine INISYM returns: Found  1 space group operations
 (whereof  1 operations are pure point group operations),
 and found     1 'primitive' translations


----------------------------------------------------------------------------------------

                                     Primitive cell                                     

  volume of cell :    2631.0826

  direct lattice vectors                    reciprocal lattice vectors
    12.325000000  0.000000000  0.000000000     0.081135903  0.046843835  0.000000000
    -6.162500000 10.673763102  0.000000000     0.000000000  0.093687670  0.000000000
     0.000000000  0.000000000 20.000000000     0.000000000  0.000000000  0.050000000

  length of vectors
    12.325000000 12.325000000 20.000000000     0.093687670  0.093687670  0.050000000

  position of ions in fractional coordinates (direct lattice)
     0.972450841  0.000320818  0.000708389
     0.039118382  0.133659505  0.000550216
     0.172443627  0.000295449  0.000624535
     0.239096278  0.133647917  0.000320585
     0.972452058  0.200322012  0.000606523
     0.039128360  0.333643771  0.000555187
     0.172451764  0.200354552  0.000273959
     0.239124359  0.333665720  0.000090325
     0.372465565  0.000324403  0.000567391
     0.439137473  0.133619939  0.000322923
     0.972449824  0.400309362  0.000684513
     0.039124981  0.533636789  0.000716763
     0.372416176  0.400329481  0.000000000
     0.439099602  0.533638981  0.000290518
     0.572443676  0.000312125  0.000699475
     0.639110207  0.133631751  0.000684093
     0.972452703  0.600305653  0.000800361
     0.039124495  0.733640359  0.000818141
     0.572433471  0.600306242  0.000503618
     0.639111888  0.733641879  0.000659881
     0.172454630  0.400318228  0.000361306
     0.239120185  0.533636548  0.000473136
     0.372459750  0.200295993  0.000111246
     0.439107096  0.333673419  0.000069702
     0.172452155  0.600311506  0.000655425
     0.239123371  0.733638574  0.000718912
     0.572431082  0.200289171  0.000516621
     0.639112773  0.333618630  0.000577970
     0.372439808  0.600308022  0.000453556
     0.439116090  0.733637858  0.000617737
     0.572469358  0.400320504  0.000424897
     0.639119408  0.533650873  0.000574513
     0.772445723  0.000315427  0.000745201
     0.839116277  0.133640203  0.000719132
     0.772440513  0.200307432  0.000726291
     0.839120241  0.333635728  0.000731834
     0.772446320  0.400298367  0.000728722
     0.839118980  0.533633964  0.000776376
     0.772456143  0.600308173  0.000744639
     0.839115033  0.733643180  0.000789390
     0.972455313  0.800305582  0.000815291
     0.039114714  0.933643289  0.000747563
     0.172457971  0.800312211  0.000779216
     0.239134551  0.933647193  0.000681063
     0.372451396  0.800316674  0.000689249
     0.439124489  0.933644769  0.000676788
     0.572441101  0.800310054  0.000668168
     0.639115067  0.933638985  0.000734556
     0.772445098  0.800313187  0.000752577
     0.839116614  0.933644338  0.000758538
     0.373021009  0.251226878  0.140307756
     0.420879805  0.189313152  0.143528849
     0.325156981  0.313167186  0.137335013

  ion indices of the primitive-cell ions
   primitive index   ion index
                 1           1
                 2           2
                 3           3
                 4           4
                 5           5
                 6           6
                 7           7
                 8           8
                 9           9
                10          10
                11          11
                12          12
                13          13
                14          14
                15          15
                16          16
                17          17
                18          18
                19          19
                20          20
                21          21
                22          22
                23          23
                24          24
                25          25
                26          26
                27          27
                28          28
                29          29
                30          30
                31          31
                32          32
                33          33
                34          34
                35          35
                36          36
                37          37
                38          38
                39          39
                40          40
                41          41
                42          42
                43          43
                44          44
                45          45
                46          46
                47          47
                48          48
                49          49
                50          50
                51          51
                52          52
                53          53

----------------------------------------------------------------------------------------

 
 
 KPOINTS: auto                                    

Automatic generation of k-mesh.
 Grid dimensions read from file:
 generate k-points for:    1    1    1

 Generating k-lattice:

  Cartesian coordinates                     Fractional coordinates (reciprocal lattice)
     0.081135903  0.046843835  0.000000000     1.000000000 -0.000000000  0.000000000
     0.000000000  0.093687670  0.000000000     0.000000000  1.000000000  0.000000000
     0.000000000  0.000000000  0.050000000     0.000000000  0.000000000  1.000000000

  Length of vectors
     0.093687670  0.093687670  0.050000000

  Shift w.r.t. Gamma in fractional coordinates (k-lattice)
     0.000000000  0.000000000  0.000000000

 
 Subroutine IBZKPT returns following result:
 ===========================================
 
 Found      1 irreducible k-points:
 
 Following reciprocal coordinates:
            Coordinates               Weight
  0.000000  0.000000  0.000000      1.000000
 
 Following cartesian coordinates:
            Coordinates               Weight
  0.000000  0.000000  0.000000      1.000000
 


--------------------------------------------------------------------------------------------------------




 Dimension of arrays:
   k-points           NKPTS =      1   k-points in BZ     NKDIM =      1   number of bands    NBANDS=    136
   number of dos      NEDOS =    301   number of ions     NIONS =     53
   non local maximal  LDIM  =      4   non local SUM 2l+1 LMDIM =      8
   total plane-waves  NPLWV = ******
   max r-space proj   IRMAX =      1   max aug-charges    IRDMAX=   9736
   dimension x,y,z NGX =   128 NGY =  128 NGZ =  210
   dimension x,y,z NGXF=   256 NGYF=  256 NGZF=  420
   support grid    NGXF=   256 NGYF=  256 NGZF=  420
   ions per type =              51   2
   NGX,Y,Z   is equivalent  to a cutoff of  17.27, 17.27, 17.46 a.u.
   NGXF,Y,Z  is equivalent  to a cutoff of  34.53, 34.53, 34.91 a.u.

 SYSTEM =  unknown system                          
 POSCAR =   C  O                                   

 Startparameter for this run:
   NWRITE =      2    write-flag & timer
   PREC   = accura    normal or accurate (medium, high low for compatibility)
   ISTART =      0    job   : 0-new  1-cont  2-samecut
   ICHARG =      2    charge: 1-file 2-atom 10-const
   ISPIN  =      1    spin polarized calculation?
   LNONCOLLINEAR =      F non collinear calculations
   LSORBIT =      F    spin-orbit coupling
   INIWAV =      1    electr: 0-lowe 1-rand  2-diag
   LASPH  =      T    aspherical Exc in radial PAW
 Electronic Relaxation 1
   ENCUT  = 1000.0 eV  73.50 Ry    8.57 a.u.  31.78 31.78 51.57*2*pi/ulx,y,z
   ENINI  = 1000.0     initial cutoff
   ENAUG  =  946.8 eV  augmentation charge cutoff
   NELM   =     60;   NELMIN=  2; NELMDL= -5     # of ELM steps 
   EDIFF  = 0.1E-06   stopping-criterion for ELM
   LREAL  =      F    real-space projection
   NLSPLINE    = F    spline interpolate recip. space projectors
   LCOMPAT=      F    compatible to vasp.4.4
   GGA_COMPAT  = T    GGA compatible to vasp.4.4-vasp.4.6
   LMAXPAW     = -100 max onsite density
   LMAXMIX     =    2 max onsite mixed and CHGCAR
   VOSKOWN=      0    Vosko Wilk Nusair interpolation
   ROPT   =    0.00000   0.00000
 Ionic relaxation
   EDIFFG = 0.1E-05   stopping-criterion for IOM
   NSW    =      0    number of steps for IOM
   NBLOCK =      1;   KBLOCK =      1    inner block; outer block 
   IBRION =     -1    ionic relax: 0-MD 1-quasi-New 2-CG
   NFREE  =      0    steps in history (QN), initial steepest desc. (CG)
   ISIF   =      0    stress and relaxation
   IWAVPR =     10    prediction:  0-non 1-charg 2-wave 3-comb
   ISYM   =      2    0-nonsym 1-usesym 2-fastsym
   LCORR  =      T    Harris-Foulkes like correction to forces

   POTIM  = 0.5000    time-step for ionic-motion
   TEIN   =    0.0    initial temperature
   TEBEG  =    0.0;   TEEND  =   0.0 temperature during run
   SMASS  =  -3.00    Nose mass-parameter (am)
   estimated Nose-frequenzy (Omega)   =  0.10E-29 period in steps = 0.13E+47 mass=  -0.347E-26a.u.
   SCALEE = 1.0000    scale energy and forces
   NPACO  =    256;   APACO  = 16.0  distance and # of slots for P.C.
   PSTRESS=    0.0 pullay stress

  Mass of Ions in am
   POMASS =  12.01 16.00
  Ionic Valenz
   ZVAL   =   4.00  6.00
  Atomic Wigner-Seitz radii
   RWIGS  =  -1.00 -1.00
  virtual crystal weights 
   VCA    =   1.00  1.00
   NELECT =     216.0000    total number of electrons
   NUPDOWN=      -1.0000    fix difference up-down

 DOS related values:
   EMIN   =  10.00;   EMAX   =-10.00  energy-range for DOS
   EFERMI =   0.00
   ISMEAR =     0;   SIGMA  =   0.01  broadening in eV -4-tet -1-fermi 0-gaus

 Electronic relaxation 2 (details)
   IALGO  =     58    algorithm
   LDIAG  =      T    sub-space diagonalisation (order eigenvalues)
   LSUBROT=      F    optimize rotation matrix (better conditioning)
   TURBO    =      0    0=normal 1=particle mesh
   IRESTART =      0    0=no restart 2=restart with 2 vectors
   NREBOOT  =      0    no. of reboots
   NMIN     =      0    reboot dimension
   EREF     =   0.00    reference energy to select bands
   IMIX   =      4    mixing-type and parameters
     AMIX     =   0.40;   BMIX     =  1.00
     AMIX_MAG =   1.60;   BMIX_MAG =  1.00
     AMIN     =   0.10
     WC   =   100.;   INIMIX=   1;  MIXPRE=   1;  MAXMIX= -45

 Intra band minimization:
   WEIMIN = 0.0000     energy-eigenvalue tresh-hold
   EBREAK =  0.18E-09  absolut break condition
   DEPER  =   0.30     relativ break condition  

   TIME   =   0.40     timestep for ELM

  volume/ion in A,a.u.               =      49.64       335.01
  Fermi-wavevector in a.u.,A,eV,Ry     =   0.711510  1.344560  6.887909  0.506247
  Thomas-Fermi vector in A             =   1.798641
 
 Write flags
   LWAVE        =      T    write WAVECAR
   LDOWNSAMPLE  =      F    k-point downsampling of WAVECAR
   LCHARG       =      T    write CHGCAR
   LVTOT        =      F    write LOCPOT, total local potential
   LVHAR        =      F    write LOCPOT, Hartree potential only
   LELF         =      F    write electronic localiz. function (ELF)
   LORBIT       =      0    0 simple, 1 ext, 2 COOP (PROOUT), +10 PAW based schemes


 Dipole corrections
   LMONO  =      F    monopole corrections only (constant potential shift)
   LDIPOL =      F    correct potential (dipole corrections)
   IDIPOL =      0    1-x, 2-y, 3-z, 4-all directions 
   EPSILON=  1.0000000 bulk dielectric constant

 Exchange correlation treatment:
   GGA     =    MK    GGA type
   LEXCH   =    43    internal setting for exchange type
   VOSKOWN=      0    Vosko Wilk Nusair interpolation
   LHFCALC =     F    Hartree Fock is set to
   LHFONE  =     F    Hartree Fock one center treatment
   AEXX    =    0.0000 exact exchange contribution

 vdW DFT:
   LUSE_VDW   =     T    switch on vdW DFT
   Zab_VDW    =******    correlation parameter
   PARAM1     =0.1234
   PARAM2     =0.7114
   PARAM3     =0.0000
   -- rVV10 --
   BPARAM     = 6.3000
   CPARAM     = 0.0093

 Linear response parameters
   LEPSILON=     F    determine dielectric tensor
   LRPA    =     F    only Hartree local field effects (RPA)
   LNABLA  =     F    use nabla operator in PAW spheres
   LVEL    =     F    velocity operator in full k-point grid
   LINTERFAST=   F  fast interpolation
   KINTER  =     0    interpolate to denser k-point grid
   CSHIFT  =0.1000    complex shift for real part using Kramers Kronig
   OMEGAMAX=  -1.0    maximum frequency
   DEG_THRESHOLD= 0.2000000E-02 threshold for treating states as degnerate
   RTIME   =   -0.100 relaxation time in fs
  (WPLASMAI=    0.000 imaginary part of plasma frequency in eV, 0.658/RTIME)
   DFIELD  = 0.0000000 0.0000000 0.0000000 field for delta impulse in time
 
 Orbital magnetization related:
   ORBITALMAG=     F  switch on orbital magnetization
   LCHIMAG   =     F  perturbation theory with respect to B field
   DQ        =  0.001000  dq finite difference perturbation B field
   LLRAUG    =     F  two centre corrections for induced B field



--------------------------------------------------------------------------------------------------------


 Static calculation
 charge density and potential will be updated during run
 non-spin polarized calculation
 Conjugate gradient for all bands (Freysoldt, et al. PRB 79, 241103 (2009))
 preconditioned conjugated gradient                                        
 perform sub-space diagonalisation
    before iterative eigenvector-optimisation
 modified Broyden-mixing scheme, WC =      100.0
 initial mixing is a Kerker type mixing with AMIX =  0.4000 and BMIX =      1.0000
 Hartree-type preconditioning will be used
 using additional bands           28
 reciprocal scheme for non local part
 use partial core corrections
 no Harris-corrections to forces 
 use gradient corrections 
 use of overlap-Matrix (Vanderbilt PP)
 Gauss-broadening in eV      SIGMA  =   0.01


--------------------------------------------------------------------------------------------------------


  energy-cutoff  :     1000.00
  volume of cell :     2631.08
      direct lattice vectors                 reciprocal lattice vectors
    12.325000000  0.000000000  0.000000000     0.081135903  0.046843835  0.000000000
    -6.162500000 10.673763102  0.000000000     0.000000000  0.093687670  0.000000000
     0.000000000  0.000000000 20.000000000     0.000000000  0.000000000  0.050000000

  length of vectors
    12.325000000 12.325000000 20.000000000     0.093687670  0.093687670  0.050000000


 
 k-points in units of 2pi/SCALE and weight: auto                                    
   0.00000000  0.00000000  0.00000000       1.000
 
 k-points in reciprocal lattice and weights: auto                                    
   0.00000000  0.00000000  0.00000000       1.000
 
 position of ions in fractional coordinates (direct lattice) 
   0.97245084  0.00032082  0.00070839
   0.03911838  0.13365950  0.00055022
   0.17244363  0.00029545  0.00062454
   0.23909628  0.13364792  0.00032058
   0.97245206  0.20032201  0.00060652
   0.03912836  0.33364377  0.00055519
   0.17245176  0.20035455  0.00027396
   0.23912436  0.33366572  0.00009033
   0.37246557  0.00032440  0.00056739
   0.43913747  0.13361994  0.00032292
   0.97244982  0.40030936  0.00068451
   0.03912498  0.53363679  0.00071676
   0.37241618  0.40032948  0.00000000
   0.43909960  0.53363898  0.00029052
   0.57244368  0.00031213  0.00069947
   0.63911021  0.13363175  0.00068409
   0.97245270  0.60030565  0.00080036
   0.03912449  0.73364036  0.00081814
   0.57243347  0.60030624  0.00050362
   0.63911189  0.73364188  0.00065988
   0.17245463  0.40031823  0.00036131
   0.23912018  0.53363655  0.00047314
   0.37245975  0.20029599  0.00011125
   0.43910710  0.33367342  0.00006970
   0.17245216  0.60031151  0.00065542
   0.23912337  0.73363857  0.00071891
   0.57243108  0.20028917  0.00051662
   0.63911277  0.33361863  0.00057797
   0.37243981  0.60030802  0.00045356
   0.43911609  0.73363786  0.00061774
   0.57246936  0.40032050  0.00042490
   0.63911941  0.53365087  0.00057451
   0.77244572  0.00031543  0.00074520
   0.83911628  0.13364020  0.00071913
   0.77244051  0.20030743  0.00072629
   0.83912024  0.33363573  0.00073183
   0.77244632  0.40029837  0.00072872
   0.83911898  0.53363396  0.00077638
   0.77245614  0.60030817  0.00074464
   0.83911503  0.73364318  0.00078939
   0.97245531  0.80030558  0.00081529
   0.03911471  0.93364329  0.00074756
   0.17245797  0.80031221  0.00077922
   0.23913455  0.93364719  0.00068106
   0.37245140  0.80031667  0.00068925
   0.43912449  0.93364477  0.00067679
   0.57244110  0.80031005  0.00066817
   0.63911507  0.93363899  0.00073456
   0.77244510  0.80031319  0.00075258
   0.83911661  0.93364434  0.00075854
   0.37302101  0.25122688  0.14030776
   0.42087980  0.18931315  0.14352885
   0.32515698  0.31316719  0.13733501
 
 position of ions in cartesian coordinates  (Angst):
  11.98347958  0.00342433  0.01416777
  -0.34154264  1.42664989  0.01100432
   2.12354700  0.00315355  0.01249070
   2.12325634  1.42652621  0.00641170
  10.75098721  2.13818970  0.01213047
  -1.57382270  3.56123457  0.01110375
   0.89078307  2.13853702  0.00547917
   0.89099273  3.56146885  0.00180651
   4.58863896  0.00346260  0.01134782
   4.58893648  1.42622757  0.00645846
   9.51853763  4.27280730  0.01369027
  -2.80632132  5.69591267  0.01433526
   2.12299894  4.27302204  0.00000000
   2.12335237  5.69593607  0.00581036
   7.05344483  0.00333155  0.01398950
   7.05352764  1.42635365  0.01368187
   8.28609598  6.40752033  0.01600723
  -4.03884931  7.83070339  0.01636283
   3.35585531  6.40752662  0.01007237
   3.35598594  7.83071962  0.01319763
  -0.34145776  4.27290193  0.00722612
  -0.34137895  5.69591010  0.00946273
   3.35624236  2.13791198  0.00222492
   3.35573251  3.56155103  0.00139405
  -1.57394684  6.40758280  0.01310850
  -1.57385216  7.83068434  0.01437823
   5.82093107  2.13783916  0.01033241
   5.82114012  3.56096622  0.01155939
   0.89092245  6.40754561  0.00907111
   0.89106251  7.83067670  0.01235474
   4.58870974  4.27292622  0.00849795
   4.58852320  5.69606300  0.01149026
   9.51844972  0.00336679  0.01490402
   9.51855036  1.42644387  0.01438264
   8.28593477  2.13803408  0.01452582
   8.28612680  3.56114872  0.01463668
   7.05356221  4.27268994  0.01457444
   7.05362213  5.69588251  0.01552751
   5.82112285  6.40754723  0.01489279
   5.82101669  7.83073350  0.01578780
   7.05362858  8.54227219  0.01630582
  -5.27148792  9.96548729  0.01495127
  -2.80637951  8.54234295  0.01558431
  -2.80626749  9.96552896  0.01362126
  -0.34148805  8.54239058  0.01378498
  -0.34137657  9.96550309  0.01353576
   2.12342586  8.54231992  0.01336337
   2.12354296  9.96544135  0.01469111
   4.58845581  8.54235337  0.01505154
   4.58852904  9.96549848  0.01517076
   3.04929830  2.68153618  2.80615512
   4.02070129  2.02068374  2.87057698
   2.07766701  3.34267235  2.74670025
 


--------------------------------------------------------------------------------------------------------


 k-point   1 :   0.0000 0.0000 0.0000  plane waves:  189031

 maximum and minimum number of plane-waves per node :      6755     6748

 maximum number of plane-waves:    189031
 maximum index in each direction: 
   IXMAX=   31   IYMAX=   31   IZMAX=   51
   IXMIN=  -31   IYMIN=  -31   IZMIN=  -51


 parallel 3D FFT for wavefunctions:
    minimum data exchange during FFTs selected (reduces bandwidth)
 parallel 3D FFT for charge:
    minimum data exchange during FFTs selected (reduces bandwidth)


 total amount of memory used by VASP MPI-rank0    85439. kBytes
=======================================================================

   base      :      30000. kBytes
   nonl-proj :       6586. kBytes
   fftplans  :      14299. kBytes
   grid      :      23511. kBytes
   one-center:          6. kBytes
   wavefun   :      11037. kBytes
 
     INWAV:  cpu time    0.0000: real time    0.0000
 Broyden mixing: mesh for mixing (old mesh)
   NGX = 63   NGY = 63   NGZ =103
  (NGX  =256   NGY  =256   NGZ  =420)
  gives a total of 408807 points

 initial charge density was supplied:
 charge density of overlapping atoms calculated
 number of electron     216.0000000 magnetization 
 keeping initial charge density in first step


--------------------------------------------------------------------------------------------------------


 Maximum index for augmentation-charges          459 (set IRDMAX)


--------------------------------------------------------------------------------------------------------


 First call to EWALD:  gamma=   0.128
 Maximum number of real-space cells 3x 3x 2
 Maximum number of reciprocal cells 3x 3x 4

    FEWALD:  cpu time    0.0025: real time    0.0025


--------------------------------------- Iteration      1(   1)  ---------------------------------------


vdW kernel read from vdw_kernel.bindat
  0.0000  0.2424  0.5071  0.7962  1.1119  1.4567  1.8333  2.2446  2.6937  3.1842
  3.7199  4.3049  4.9438  5.6415  6.4036  7.2358  8.1446  9.1372 10.2212 11.4050
 12.6979 14.1099 15.6519 17.3360 19.1751 21.1837 23.3773 25.7729 28.3892 31.2465
 34.3669 37.7748 41.4965 45.5611 50.0000
 
    POTLOK:  cpu time    3.5538: real time    3.5928
    SETDIJ:  cpu time    0.0564: real time    0.0568
    TRIAL :  cpu time    1.5047: real time    1.5242
    CORREC:  cpu time    0.0006: real time    0.0008
    --------------------------------------------
      LOOP:  cpu time    5.1177: real time    5.1973

 eigenvalue-minimisations  :   272
 total energy-change (2. order) : 0.2788239E+04  (-0.1099913E+05)
 number of electron     216.0000000 magnetization 
 augmentation part      216.0000000 magnetization 

 Free energy of the ion-electron system (eV)
  ---------------------------------------------------
  alpha Z        PSCENC =        59.93625244
  Ewald energy   TEWEN  =     34916.46917963
  -Hartree energ DENC   =    -41090.50053102
  -exchange      EXHF   =         0.00000000
  -V(xc)+E(xc)   XCENC  =       412.78740797
  PAW double counting   =      6548.36373666    -6261.59511771
  entropy T*S    EENTRO =        -0.00000000
  eigenvalues    EBANDS =      -218.16805201
  atomic energy  EATOM  =      8420.94593319
  ---------------------------------------------------
  free energy    TOTEN  =      2788.23880916 eV

  energy without entropy =     2788.23880916  energy(sigma->0) =     2788.23880916


--------------------------------------------------------------------------------------------------------




--------------------------------------- Iteration      1(   2)  ---------------------------------------


    TRIAL :  cpu time    2.0881: real time    2.1071
    CORREC:  cpu time    0.0001: real time    0.0001
    --------------------------------------------
      LOOP:  cpu time    2.1607: real time    2.1916

 eigenvalue-minimisations  :   432
 total energy-change (2. order) :-0.2419506E+04  (-0.2264691E+04)
 number of electron     216.0000000 magnetization 
 augmentation part      216.0000000 magnetization 

 Free energy of the ion-electron system (eV)
  ---------------------------------------------------
  alpha Z        PSCENC =        59.93625244
  Ewald energy   TEWEN  =     34916.46917963
  -Hartree energ DENC   =    -41090.50053102
  -exchange      EXHF   =         0.00000000
  -V(xc)+E(xc)   XCENC  =       412.78740797
  PAW double counting   =      6548.36373666    -6261.59511771
  entropy T*S    EENTRO =        -0.00000000
  eigenvalues    EBANDS =     -2637.67437634
  atomic energy  EATOM  =      8420.94593319
  ---------------------------------------------------
  free energy    TOTEN  =       368.73248483 eV

  energy without entropy =      368.73248483  energy(sigma->0) =      368.73248483


--------------------------------------------------------------------------------------------------------




--------------------------------------- Iteration      1(   3)  ---------------------------------------


    TRIAL :  cpu time    1.8612: real time    1.8781
    CORREC:  cpu time    0.0001: real time    0.0001
    --------------------------------------------
      LOOP:  cpu time    1.9630: real time    1.9853

 eigenvalue-minimisations  :   368
 total energy-change (2. order) :-0.7706251E+03  (-0.7655258E+03)
 number of electron     216.0000000 magnetization 
 augmentation part      216.0000000 magnetization 

 Free energy of the ion-electron system (eV)
  ---------------------------------------------------
  alpha Z        PSCENC =        59.93625244
  Ewald energy   TEWEN  =     34916.46917963
  -Hartree energ DENC   =    -41090.50053102
  -exchange      EXHF   =         0.00000000
  -V(xc)+E(xc)   XCENC  =       412.78740797
  PAW double counting   =      6548.36373666    -6261.59511771
  entropy T*S    EENTRO =        -0.00000000
  eigenvalues    EBANDS =     -3408.29946869
  atomic energy  EATOM  =      8420.94593319
  ---------------------------------------------------
  free energy    TOTEN  =      -401.89260753 eV

  energy without entropy =     -401.89260753  energy(sigma->0) =     -401.89260753


--------------------------------------------------------------------------------------------------------




--------------------------------------- Iteration      1(   4)  ---------------------------------------


    TRIAL :  cpu time    1.6583: real time    1.6733
    CORREC:  cpu time    0.0001: real time    0.0001
    --------------------------------------------
      LOOP:  cpu time    1.7033: real time    1.7463

 eigenvalue-minimisations  :   320
 total energy-change (2. order) :-0.5649985E+02  (-0.5591439E+02)
 number of electron     216.0000000 magnetization 
 augmentation part      216.0000000 magnetization 

 Free energy of the ion-electron system (eV)
  ---------------------------------------------------
  alpha Z        PSCENC =        59.93625244
  Ewald energy   TEWEN  =     34916.46917963
  -Hartree energ DENC   =    -41090.50053102
  -exchange      EXHF   =         0.00000000
  -V(xc)+E(xc)   XCENC  =       412.78740797
  PAW double counting   =      6548.36373666    -6261.59511771
  entropy T*S    EENTRO =        -0.00000000
  eigenvalues    EBANDS =     -3464.79931698
  atomic energy  EATOM  =      8420.94593319
  ---------------------------------------------------
  free energy    TOTEN  =      -458.39245581 eV

  energy without entropy =     -458.39245581  energy(sigma->0) =     -458.39245581


--------------------------------------------------------------------------------------------------------




--------------------------------------- Iteration      1(   5)  ---------------------------------------


    TRIAL :  cpu time    1.9019: real time    1.9192
    CORREC:  cpu time    0.0001: real time    0.0001
    CHARGE:  cpu time    0.1194: real time    0.1209
    --------------------------------------------
      LOOP:  cpu time    2.1229: real time    2.1425

 eigenvalue-minimisations  :   384
 total energy-change (2. order) :-0.1799028E+01  (-0.1794005E+01)
 number of electron     216.0000000 magnetization 
 augmentation part       -0.2311108 magnetization 

 Free energy of the ion-electron system (eV)
  ---------------------------------------------------
  alpha Z        PSCENC =        59.93625244
  Ewald energy   TEWEN  =     34916.46917963
  -Hartree energ DENC   =    -41090.50053102
  -exchange      EXHF   =         0.00000000
  -V(xc)+E(xc)   XCENC  =       412.78740797
  PAW double counting   =      6548.36373666    -6261.59511771
  entropy T*S    EENTRO =        -0.00000000
  eigenvalues    EBANDS =     -3466.59834449
  atomic energy  EATOM  =      8420.94593319
  ---------------------------------------------------
  free energy    TOTEN  =      -460.19148332 eV

  energy without entropy =     -460.19148332  energy(sigma->0) =     -460.19148332


--------------------------------------------------------------------------------------------------------




--------------------------------------- Iteration      1(   6)  ---------------------------------------


    POTLOK:  cpu time    3.2117: real time    3.2365
    SETDIJ:  cpu time    0.0546: real time    0.0548
    TRIAL :  cpu time    0.8838: real time    0.8930
    CORREC:  cpu time    3.5840: real time    3.6133
    CHARGE:  cpu time    0.1180: real time    0.1191
    --------------------------------------------
      LOOP:  cpu time    7.9165: real time    7.9857

 eigenvalue-minimisations  :     0
 total energy-change (2. order) : 0.5204261E+02  (-0.1644400E+02)
 number of electron     216.0000000 magnetization 
 augmentation part       -0.3286913 magnetization 

 Free energy of the ion-electron system (eV)
  ---------------------------------------------------
  alpha Z        PSCENC =        59.93625244
  Ewald energy   TEWEN  =     34916.46917963
  -Hartree energ DENC   =    -42505.54932819
  -exchange      EXHF   =         0.00000000
  -V(xc)+E(xc)   XCENC  =       460.07197192
  PAW double counting   =     80340.25877430   -80059.88219894
  entropy T*S    EENTRO =        -0.00000000
  eigenvalues    EBANDS =     -2040.39946257
  atomic energy  EATOM  =      8420.94593319
  ---------------------------------------------------
  free energy    TOTEN  =      -408.14887821 eV

  energy without entropy =     -408.14887821  energy(sigma->0) =     -408.14887821


--------------------------------------------------------------------------------------------------------




--------------------------------------- Iteration      1(   7)  ---------------------------------------


    POTLOK:  cpu time    3.2134: real time    3.2401
    SETDIJ:  cpu time    0.0657: real time    0.0660
    TRIAL :  cpu time    0.8577: real time    0.8668
    CORREC:  cpu time    3.5851: real time    3.6239
    CHARGE:  cpu time    0.1172: real time    0.1183
    --------------------------------------------
      LOOP:  cpu time    7.9006: real time    7.9787

 eigenvalue-minimisations  :     0
 total energy-change (2. order) :-0.1648418E+02  (-0.1733478E+01)
 number of electron     216.0000000 magnetization 
 augmentation part       -0.3739416 magnetization 

 Free energy of the ion-electron system (eV)
  ---------------------------------------------------
  alpha Z        PSCENC =        59.93625244
  Ewald energy   TEWEN  =     34916.46917963
  -Hartree energ DENC   =    -41980.26611894
  -exchange      EXHF   =         0.00000000
  -V(xc)+E(xc)   XCENC  =       442.71431595
  PAW double counting   =     95606.67894014   -95323.55996986
  entropy T*S    EENTRO =        -0.00000000
  eigenvalues    EBANDS =     -2567.55159444
  atomic energy  EATOM  =      8420.94593319
  ---------------------------------------------------
  free energy    TOTEN  =      -424.63306188 eV

  energy without entropy =     -424.63306188  energy(sigma->0) =     -424.63306188


--------------------------------------------------------------------------------------------------------




--------------------------------------- Iteration      1(   8)  ---------------------------------------


    POTLOK:  cpu time    3.2176: real time    3.2448
    SETDIJ:  cpu time    0.0646: real time    0.0649
    TRIAL :  cpu time    0.8582: real time    0.8667
    CORREC:  cpu time    3.5763: real time    3.6051
    CHARGE:  cpu time    0.1173: real time    0.1185
    --------------------------------------------
      LOOP:  cpu time    7.8761: real time    7.9565

 eigenvalue-minimisations  :     0
 total energy-change (2. order) :-0.1733407E+01  (-0.4585031E+00)
 number of electron     216.0000000 magnetization 
 augmentation part       -0.3908967 magnetization 

 Free energy of the ion-electron system (eV)
  ---------------------------------------------------
  alpha Z        PSCENC =        59.93625244
  Ewald energy   TEWEN  =     34916.46917963
  -Hartree energ DENC   =    -41962.98875928
  -exchange      EXHF   =         0.00000000
  -V(xc)+E(xc)   XCENC  =       442.33647394
  PAW double counting   =     99598.10688777   -99314.67350217
  entropy T*S    EENTRO =        -0.00000000
  eigenvalues    EBANDS =     -2586.49893484
  atomic energy  EATOM  =      8420.94593319
  ---------------------------------------------------
  free energy    TOTEN  =      -426.36646931 eV

  energy without entropy =     -426.36646931  energy(sigma->0) =     -426.36646931


--------------------------------------------------------------------------------------------------------




--------------------------------------- Iteration      1(   9)  ---------------------------------------


    POTLOK:  cpu time    3.2214: real time    3.2460
    SETDIJ:  cpu time    0.0650: real time    0.0652
    TRIAL :  cpu time    0.8579: real time    0.8666
    CORREC:  cpu time    3.5725: real time    3.6019
    CHARGE:  cpu time    0.1162: real time    0.1175
    --------------------------------------------
      LOOP:  cpu time    7.8926: real time    7.9596

 eigenvalue-minimisations  :     0
 total energy-change (2. order) :-0.4584575E+00  (-0.1611747E+00)
 number of electron     216.0000000 magnetization 
 augmentation part       -0.3990274 magnetization 

 Free energy of the ion-electron system (eV)
  ---------------------------------------------------
  alpha Z        PSCENC =        59.93625244
  Ewald energy   TEWEN  =     34916.46917963
  -Hartree energ DENC   =    -41975.69158669
  -exchange      EXHF   =         0.00000000
  -V(xc)+E(xc)   XCENC  =       442.51999582
  PAW double counting   =    102252.93247839  -101969.36393683
  entropy T*S    EENTRO =        -0.00000000
  eigenvalues    EBANDS =     -2574.57324276
  atomic energy  EATOM  =      8420.94593319
  ---------------------------------------------------
  free energy    TOTEN  =      -426.82492680 eV

  energy without entropy =     -426.82492680  energy(sigma->0) =     -426.82492680


--------------------------------------------------------------------------------------------------------




--------------------------------------- Iteration      1(  10)  ---------------------------------------


    POTLOK:  cpu time    3.2140: real time    3.2377
    SETDIJ:  cpu time    0.0656: real time    0.0659
    TRIAL :  cpu time    0.8586: real time    0.8673
    CORREC:  cpu time    3.5844: real time    3.6115
    CHARGE:  cpu time    0.1167: real time    0.1178
    --------------------------------------------
      LOOP:  cpu time    7.8948: real time    7.9730

 eigenvalue-minimisations  :     0
 total energy-change (2. order) :-0.1609402E+00  (-0.7147666E-01)
 number of electron     216.0000000 magnetization 
 augmentation part       -0.4004732 magnetization 

 Free energy of the ion-electron system (eV)
  ---------------------------------------------------
  alpha Z        PSCENC =        59.93625244
  Ewald energy   TEWEN  =     34916.46917963
  -Hartree energ DENC   =    -41973.55665103
  -exchange      EXHF   =         0.00000000
  -V(xc)+E(xc)   XCENC  =       442.42391150
  PAW double counting   =    102858.94280126  -102575.29373283
  entropy T*S    EENTRO =        -0.00000000
  eigenvalues    EBANDS =     -2576.85356119
  atomic energy  EATOM  =      8420.94593319
  ---------------------------------------------------
  free energy    TOTEN  =      -426.98586702 eV

  energy without entropy =     -426.98586702  energy(sigma->0) =     -426.98586702


--------------------------------------------------------------------------------------------------------




--------------------------------------- Iteration      1(  11)  ---------------------------------------


    POTLOK:  cpu time    3.2164: real time    3.2404
    SETDIJ:  cpu time    0.0644: real time    0.0647
    TRIAL :  cpu time    0.8631: real time    0.8830
    CORREC:  cpu time    3.6015: real time    3.6297
    CHARGE:  cpu time    0.1175: real time    0.1185
    --------------------------------------------
      LOOP:  cpu time    7.9275: real time    8.0017

 eigenvalue-minimisations  :     0
 total energy-change (2. order) :-0.7115987E-01  (-0.2979397E-01)
 number of electron     216.0000000 magnetization 
 augmentation part       -0.4002906 magnetization 

 Free energy of the ion-electron system (eV)
  ---------------------------------------------------
  alpha Z        PSCENC =        59.93625244
  Ewald energy   TEWEN  =     34916.46917963
  -Hartree energ DENC   =    -41968.18473047
  -exchange      EXHF   =         0.00000000
  -V(xc)+E(xc)   XCENC  =       442.34367626
  PAW double counting   =    102524.75810736  -102241.10914322
  entropy T*S    EENTRO =        -0.00000000
  eigenvalues    EBANDS =     -2582.21630210
  atomic energy  EATOM  =      8420.94593319
  ---------------------------------------------------
  free energy    TOTEN  =      -427.05702689 eV

  energy without entropy =     -427.05702689  energy(sigma->0) =     -427.05702689


--------------------------------------------------------------------------------------------------------




--------------------------------------- Iteration      1(  12)  ---------------------------------------


    POTLOK:  cpu time    3.2120: real time    3.2369
    SETDIJ:  cpu time    0.0653: real time    0.0655
    TRIAL :  cpu time    0.8585: real time    0.8671
    CORREC:  cpu time    3.5842: real time    3.6126
    CHARGE:  cpu time    0.1162: real time    0.1174
    --------------------------------------------
      LOOP:  cpu time    7.9115: real time    7.9997

 eigenvalue-minimisations  :     0
 total energy-change (2. order) :-0.2966400E-01  (-0.9860894E-02)
 number of electron     216.0000000 magnetization 
 augmentation part       -0.4003244 magnetization 

 Free energy of the ion-electron system (eV)
  ---------------------------------------------------
  alpha Z        PSCENC =        59.93625244
  Ewald energy   TEWEN  =     34916.46917963
  -Hartree energ DENC   =    -41965.76351666
  -exchange      EXHF   =         0.00000000
  -V(xc)+E(xc)   XCENC  =       442.29596740
  PAW double counting   =    102196.49020364  -101912.86263875
  entropy T*S    EENTRO =        -0.00000000
  eigenvalues    EBANDS =     -2584.59807180
  atomic energy  EATOM  =      8420.94593319
  ---------------------------------------------------
  free energy    TOTEN  =      -427.08669089 eV

  energy without entropy =     -427.08669089  energy(sigma->0) =     -427.08669089


--------------------------------------------------------------------------------------------------------




--------------------------------------- Iteration      1(  13)  ---------------------------------------


    POTLOK:  cpu time    3.2205: real time    3.2452
    SETDIJ:  cpu time    0.0657: real time    0.0659
    TRIAL :  cpu time    0.8583: real time    0.8673
    CORREC:  cpu time    3.5785: real time    3.6072
    CHARGE:  cpu time    0.1182: real time    0.1194
    --------------------------------------------
      LOOP:  cpu time    7.8564: real time    7.9484

 eigenvalue-minimisations  :     0
 total energy-change (2. order) :-0.9845870E-02  (-0.3009569E-02)
 number of electron     216.0000000 magnetization 
 augmentation part       -0.3998700 magnetization 

 Free energy of the ion-electron system (eV)
  ---------------------------------------------------
  alpha Z        PSCENC =        59.93625244
  Ewald energy   TEWEN  =     34916.46917963
  -Hartree energ DENC   =    -41965.32747786
  -exchange      EXHF   =         0.00000000
  -V(xc)+E(xc)   XCENC  =       442.27734809
  PAW double counting   =    102068.07595158  -101784.45877696
  entropy T*S    EENTRO =        -0.00000000
  eigenvalues    EBANDS =     -2585.01494687
  atomic energy  EATOM  =      8420.94593319
  ---------------------------------------------------
  free energy    TOTEN  =      -427.09653676 eV

  energy without entropy =     -427.09653676  energy(sigma->0) =     -427.09653676


--------------------------------------------------------------------------------------------------------




--------------------------------------- Iteration      1(  14)  ---------------------------------------


    POTLOK:  cpu time    3.2328: real time    3.2581
    SETDIJ:  cpu time    0.0652: real time    0.0654
    TRIAL :  cpu time    0.8581: real time    0.8671
    CORREC:  cpu time    3.5764: real time    3.6056
    CHARGE:  cpu time    0.1166: real time    0.1177
    --------------------------------------------
      LOOP:  cpu time    7.8803: real time    8.0085

 eigenvalue-minimisations  :     0
 total energy-change (2. order) :-0.3011162E-02  (-0.1060450E-02)
 number of electron     216.0000000 magnetization 
 augmentation part       -0.3995709 magnetization 

 Free energy of the ion-electron system (eV)
  ---------------------------------------------------
  alpha Z        PSCENC =        59.93625244
  Ewald energy   TEWEN  =     34916.46917963
  -Hartree energ DENC   =    -41965.35219709
  -exchange      EXHF   =         0.00000000
  -V(xc)+E(xc)   XCENC  =       442.27602369
  PAW double counting   =    102062.41099213  -101778.79852494
  entropy T*S    EENTRO =        -0.00000000
  eigenvalues    EBANDS =     -2584.98720697
  atomic energy  EATOM  =      8420.94593319
  ---------------------------------------------------
  free energy    TOTEN  =      -427.09954792 eV

  energy without entropy =     -427.09954792  energy(sigma->0) =     -427.09954792


--------------------------------------------------------------------------------------------------------




--------------------------------------- Iteration      1(  15)  ---------------------------------------


    POTLOK:  cpu time    3.2205: real time    3.2488
    SETDIJ:  cpu time    0.0654: real time    0.0657
    TRIAL :  cpu time    0.8648: real time    0.8738
    CORREC:  cpu time    3.5750: real time    3.6041
    CHARGE:  cpu time    0.1179: real time    0.1191
    --------------------------------------------
      LOOP:  cpu time    7.9006: real time    7.9946

 eigenvalue-minimisations  :     0
 total energy-change (2. order) :-0.1063063E-02  (-0.5384768E-03)
 number of electron     216.0000000 magnetization 
 augmentation part       -0.3991810 magnetization 

 Free energy of the ion-electron system (eV)
  ---------------------------------------------------
  alpha Z        PSCENC =        59.93625244
  Ewald energy   TEWEN  =     34916.46917963
  -Hartree energ DENC   =    -41965.00349465
  -exchange      EXHF   =         0.00000000
  -V(xc)+E(xc)   XCENC  =       442.26080265
  PAW double counting   =    102063.26062349  -101779.64706696
  entropy T*S    EENTRO =        -0.00000000
  eigenvalues    EBANDS =     -2585.32284078
  atomic energy  EATOM  =      8420.94593319
  ---------------------------------------------------
  free energy    TOTEN  =      -427.10061099 eV

  energy without entropy =     -427.10061099  energy(sigma->0) =     -427.10061099


--------------------------------------------------------------------------------------------------------




--------------------------------------- Iteration      1(  16)  ---------------------------------------


    POTLOK:  cpu time    3.2122: real time    3.2367
    SETDIJ:  cpu time    0.0655: real time    0.0657
    TRIAL :  cpu time    0.8583: real time    0.8674
    CORREC:  cpu time    3.5767: real time    3.6052
    CHARGE:  cpu time    0.1170: real time    0.1182
    --------------------------------------------
      LOOP:  cpu time    7.9103: real time    7.9822

 eigenvalue-minimisations  :     0
 total energy-change (2. order) :-0.5401912E-03  (-0.2703983E-03)
 number of electron     216.0000000 magnetization 
 augmentation part       -0.3989998 magnetization 

 Free energy of the ion-electron system (eV)
  ---------------------------------------------------
  alpha Z        PSCENC =        59.93625244
  Ewald energy   TEWEN  =     34916.46917963
  -Hartree energ DENC   =    -41965.24160870
  -exchange      EXHF   =         0.00000000
  -V(xc)+E(xc)   XCENC  =       442.26877611
  PAW double counting   =    102019.20589967  -101735.59348123
  entropy T*S    EENTRO =        -0.00000000
  eigenvalues    EBANDS =     -2585.09210230
  atomic energy  EATOM  =      8420.94593319
  ---------------------------------------------------
  free energy    TOTEN  =      -427.10115118 eV

  energy without entropy =     -427.10115118  energy(sigma->0) =     -427.10115118


--------------------------------------------------------------------------------------------------------




--------------------------------------- Iteration      1(  17)  ---------------------------------------


    POTLOK:  cpu time    3.2206: real time    3.2452
    SETDIJ:  cpu time    0.0654: real time    0.0656
    TRIAL :  cpu time    0.8581: real time    0.8670
    CORREC:  cpu time    3.5810: real time    3.6096
    CHARGE:  cpu time    0.1174: real time    0.1186
    --------------------------------------------
      LOOP:  cpu time    7.9428: real time    8.0089

 eigenvalue-minimisations  :     0
 total energy-change (2. order) :-0.2708249E-03  (-0.1153543E-03)
 number of electron     216.0000000 magnetization 
 augmentation part       -0.3990878 magnetization 

 Free energy of the ion-electron system (eV)
  ---------------------------------------------------
  alpha Z        PSCENC =        59.93625244
  Ewald energy   TEWEN  =     34916.46917963
  -Hartree energ DENC   =    -41965.43062188
  -exchange      EXHF   =         0.00000000
  -V(xc)+E(xc)   XCENC  =       442.27459162
  PAW double counting   =    101973.97706963  -101690.36472244
  entropy T*S    EENTRO =        -0.00000000
  eigenvalues    EBANDS =     -2584.90910419
  atomic energy  EATOM  =      8420.94593319
  ---------------------------------------------------
  free energy    TOTEN  =      -427.10142200 eV

  energy without entropy =     -427.10142200  energy(sigma->0) =     -427.10142200


--------------------------------------------------------------------------------------------------------




--------------------------------------- Iteration      1(  18)  ---------------------------------------


    POTLOK:  cpu time    3.2248: real time    3.2490
    SETDIJ:  cpu time    0.0652: real time    0.0654
    TRIAL :  cpu time    0.8579: real time    0.8668
    CORREC:  cpu time    3.5820: real time    3.6139
    CHARGE:  cpu time    0.1143: real time    0.1180
    --------------------------------------------
      LOOP:  cpu time    7.9119: real time    7.9837

 eigenvalue-minimisations  :     0
 total energy-change (2. order) :-0.1151469E-03  (-0.4219496E-04)
 number of electron     216.0000000 magnetization 
 augmentation part       -0.3992009 magnetization 

 Free energy of the ion-electron system (eV)
  ---------------------------------------------------
  alpha Z        PSCENC =        59.93625244
  Ewald energy   TEWEN  =     34916.46917963
  -Hartree energ DENC   =    -41965.40121284
  -exchange      EXHF   =         0.00000000
  -V(xc)+E(xc)   XCENC  =       442.27335115
  PAW double counting   =    101966.79589589  -101683.18239841
  entropy T*S    EENTRO =        -0.00000000
  eigenvalues    EBANDS =     -2584.93853820
  atomic energy  EATOM  =      8420.94593319
  ---------------------------------------------------
  free energy    TOTEN  =      -427.10153715 eV

  energy without entropy =     -427.10153715  energy(sigma->0) =     -427.10153715


--------------------------------------------------------------------------------------------------------




--------------------------------------- Iteration      1(  19)  ---------------------------------------


    POTLOK:  cpu time    3.2200: real time    3.2489
    SETDIJ:  cpu time    0.0650: real time    0.0653
    TRIAL :  cpu time    0.8753: real time    0.8853
    CORREC:  cpu time    3.5732: real time    3.6068
    CHARGE:  cpu time    0.1163: real time    0.1176
    --------------------------------------------
      LOOP:  cpu time    7.8808: real time    7.9551

 eigenvalue-minimisations  :     0
 total energy-change (2. order) :-0.4178312E-04  (-0.1661661E-04)
 number of electron     216.0000000 magnetization 
 augmentation part       -0.3992977 magnetization 

 Free energy of the ion-electron system (eV)
  ---------------------------------------------------
  alpha Z        PSCENC =        59.93625244
  Ewald energy   TEWEN  =     34916.46917963
  -Hartree energ DENC   =    -41965.44937575
  -exchange      EXHF   =         0.00000000
  -V(xc)+E(xc)   XCENC  =       442.27540017
  PAW double counting   =    101980.51590495  -101696.90217754
  entropy T*S    EENTRO =        -0.00000000
  eigenvalues    EBANDS =     -2584.89269603
  atomic energy  EATOM  =      8420.94593319
  ---------------------------------------------------
  free energy    TOTEN  =      -427.10157893 eV

  energy without entropy =     -427.10157893  energy(sigma->0) =     -427.10157893


--------------------------------------------------------------------------------------------------------




--------------------------------------- Iteration      1(  20)  ---------------------------------------


    POTLOK:  cpu time    3.2100: real time    3.2391
    SETDIJ:  cpu time    0.0656: real time    0.0659
    TRIAL :  cpu time    0.8721: real time    0.8823
    CORREC:  cpu time    3.5713: real time    3.6042
    CHARGE:  cpu time    0.1177: real time    0.1191
    --------------------------------------------
      LOOP:  cpu time    7.9089: real time    7.9876

 eigenvalue-minimisations  :     0
 total energy-change (2. order) :-0.1636679E-04  (-0.7266906E-05)
 number of electron     216.0000000 magnetization 
 augmentation part       -0.3992939 magnetization 

 Free energy of the ion-electron system (eV)
  ---------------------------------------------------
  alpha Z        PSCENC =        59.93625244
  Ewald energy   TEWEN  =     34916.46917963
  -Hartree energ DENC   =    -41965.40523936
  -exchange      EXHF   =         0.00000000
  -V(xc)+E(xc)   XCENC  =       442.27376735
  PAW double counting   =    101991.61535364  -101708.00125304
  entropy T*S    EENTRO =        -0.00000000
  eigenvalues    EBANDS =     -2584.93558915
  atomic energy  EATOM  =      8420.94593319
  ---------------------------------------------------
  free energy    TOTEN  =      -427.10159530 eV

  energy without entropy =     -427.10159530  energy(sigma->0) =     -427.10159530


--------------------------------------------------------------------------------------------------------




--------------------------------------- Iteration      1(  21)  ---------------------------------------


    POTLOK:  cpu time    3.2123: real time    3.2417
    SETDIJ:  cpu time    0.0653: real time    0.0655
    TRIAL :  cpu time    0.8651: real time    0.8752
    CORREC:  cpu time    3.5747: real time    3.6057
    CHARGE:  cpu time    0.1183: real time    0.1194
    --------------------------------------------
      LOOP:  cpu time    7.8992: real time    7.9720

 eigenvalue-minimisations  :     0
 total energy-change (2. order) :-0.7117764E-05  (-0.3436320E-05)
 number of electron     216.0000000 magnetization 
 augmentation part       -0.3992944 magnetization 

 Free energy of the ion-electron system (eV)
  ---------------------------------------------------
  alpha Z        PSCENC =        59.93625244
  Ewald energy   TEWEN  =     34916.46917963
  -Hartree energ DENC   =    -41965.42227970
  -exchange      EXHF   =         0.00000000
  -V(xc)+E(xc)   XCENC  =       442.27469147
  PAW double counting   =    101994.44021275  -101710.82649783
  entropy T*S    EENTRO =        -0.00000000
  eigenvalues    EBANDS =     -2584.91909437
  atomic energy  EATOM  =      8420.94593319
  ---------------------------------------------------
  free energy    TOTEN  =      -427.10160242 eV

  energy without entropy =     -427.10160242  energy(sigma->0) =     -427.10160242


--------------------------------------------------------------------------------------------------------




--------------------------------------- Iteration      1(  22)  ---------------------------------------


    POTLOK:  cpu time    3.2180: real time    3.2422
    SETDIJ:  cpu time    0.0642: real time    0.0644
    TRIAL :  cpu time    0.8590: real time    0.8676
    CORREC:  cpu time    3.5727: real time    3.6051
    CHARGE:  cpu time    0.1173: real time    0.1186
    --------------------------------------------
      LOOP:  cpu time    7.8850: real time    7.9532

 eigenvalue-minimisations  :     0
 total energy-change (2. order) :-0.3410736E-05  (-0.1369409E-05)
 number of electron     216.0000000 magnetization 
 augmentation part       -0.3992787 magnetization 

 Free energy of the ion-electron system (eV)
  ---------------------------------------------------
  alpha Z        PSCENC =        59.93625244
  Ewald energy   TEWEN  =     34916.46917963
  -Hartree energ DENC   =    -41965.39242586
  -exchange      EXHF   =         0.00000000
  -V(xc)+E(xc)   XCENC  =       442.27360791
  PAW double counting   =    101993.09939757  -101709.48568066
  entropy T*S    EENTRO =        -0.00000000
  eigenvalues    EBANDS =     -2584.94787005
  atomic energy  EATOM  =      8420.94593319
  ---------------------------------------------------
  free energy    TOTEN  =      -427.10160583 eV

  energy without entropy =     -427.10160583  energy(sigma->0) =     -427.10160583


--------------------------------------------------------------------------------------------------------




--------------------------------------- Iteration      1(  23)  ---------------------------------------


    POTLOK:  cpu time    3.2130: real time    3.2410
    SETDIJ:  cpu time    0.0654: real time    0.0656
    TRIAL :  cpu time    0.8565: real time    0.8672
    CORREC:  cpu time    3.5646: real time    3.5983
    CHARGE:  cpu time    0.1173: real time    0.1186
    --------------------------------------------
      LOOP:  cpu time    7.8715: real time    7.9466

 eigenvalue-minimisations  :     0
 total energy-change (2. order) :-0.1378226E-05  (-0.5293016E-06)
 number of electron     216.0000000 magnetization 
 augmentation part       -0.3992729 magnetization 

 Free energy of the ion-electron system (eV)
  ---------------------------------------------------
  alpha Z        PSCENC =        59.93625244
  Ewald energy   TEWEN  =     34916.46917963
  -Hartree energ DENC   =    -41965.39311814
  -exchange      EXHF   =         0.00000000
  -V(xc)+E(xc)   XCENC  =       442.27378218
  PAW double counting   =    101991.70378557  -101708.09016882
  entropy T*S    EENTRO =        -0.00000000
  eigenvalues    EBANDS =     -2584.94725327
  atomic energy  EATOM  =      8420.94593319
  ---------------------------------------------------
  free energy    TOTEN  =      -427.10160721 eV

  energy without entropy =     -427.10160721  energy(sigma->0) =     -427.10160721


--------------------------------------------------------------------------------------------------------




--------------------------------------- Iteration      1(  24)  ---------------------------------------


    POTLOK:  cpu time    3.2156: real time    3.2442
    SETDIJ:  cpu time    0.0651: real time    0.0653
    TRIAL :  cpu time    0.8561: real time    0.8668
    CORREC:  cpu time    3.5716: real time    3.6056
    CHARGE:  cpu time    0.1172: real time    0.1185
    --------------------------------------------
      LOOP:  cpu time    7.8529: real time    7.9299

 eigenvalue-minimisations  :     0
 total energy-change (2. order) :-0.5412730E-06  (-0.2113304E-06)
 number of electron     216.0000000 magnetization 
 augmentation part       -0.3992735 magnetization 

 Free energy of the ion-electron system (eV)
  ---------------------------------------------------
  alpha Z        PSCENC =        59.93625244
  Ewald energy   TEWEN  =     34916.46917963
  -Hartree energ DENC   =    -41965.38930014
  -exchange      EXHF   =         0.00000000
  -V(xc)+E(xc)   XCENC  =       442.27377122
  PAW double counting   =    101991.21383309  -101707.60020725
  entropy T*S    EENTRO =        -0.00000000
  eigenvalues    EBANDS =     -2584.95106994
  atomic energy  EATOM  =      8420.94593319
  ---------------------------------------------------
  free energy    TOTEN  =      -427.10160775 eV

  energy without entropy =     -427.10160775  energy(sigma->0) =     -427.10160775


--------------------------------------------------------------------------------------------------------




--------------------------------------- Iteration      1(  25)  ---------------------------------------


    POTLOK:  cpu time    3.2149: real time    3.2440
    SETDIJ:  cpu time    0.0630: real time    0.0633
    TRIAL :  cpu time    0.8570: real time    0.8673
    CORREC:  cpu time    3.5766: real time    3.6105
    CHARGE:  cpu time    0.1156: real time    0.1169
    --------------------------------------------
      LOOP:  cpu time    7.8521: real time    7.9653

 eigenvalue-minimisations  :     0
 total energy-change (2. order) :-0.2166635E-06  (-0.1033548E-06)
 number of electron     216.0000000 magnetization 
 augmentation part       -0.3992721 magnetization 

 Free energy of the ion-electron system (eV)
  ---------------------------------------------------
  alpha Z        PSCENC =        59.93625244
  Ewald energy   TEWEN  =     34916.46917963
  -Hartree energ DENC   =    -41965.38751888
  -exchange      EXHF   =         0.00000000
  -V(xc)+E(xc)   XCENC  =       442.27369492
  PAW double counting   =    101991.20075430  -101707.58708536
  entropy T*S    EENTRO =        -0.00000000
  eigenvalues    EBANDS =     -2584.95281821
  atomic energy  EATOM  =      8420.94593319
  ---------------------------------------------------
  free energy    TOTEN  =      -427.10160796 eV

  energy without entropy =     -427.10160796  energy(sigma->0) =     -427.10160796


--------------------------------------------------------------------------------------------------------




--------------------------------------- Iteration      1(  26)  ---------------------------------------


    POTLOK:  cpu time    3.2249: real time    3.2500
    SETDIJ:  cpu time    0.0649: real time    0.0652
    TRIAL :  cpu time    0.8699: real time    0.8877
    CORREC:  cpu time    3.5683: real time    3.5981
    CHARGE:  cpu time    0.1173: real time    0.1186
    --------------------------------------------
      LOOP:  cpu time    7.9073: real time    7.9829

 eigenvalue-minimisations  :     0
 total energy-change (2. order) :-0.1061853E-06  (-0.3991072E-07)
 number of electron     216.0000000 magnetization 
 augmentation part       -0.3992719 magnetization 

 Free energy of the ion-electron system (eV)
  ---------------------------------------------------
  alpha Z        PSCENC =        59.93625244
  Ewald energy   TEWEN  =     34916.46917963
  -Hartree energ DENC   =    -41965.39149914
  -exchange      EXHF   =         0.00000000
  -V(xc)+E(xc)   XCENC  =       442.27382877
  PAW double counting   =    101991.34553784  -101707.73187124
  entropy T*S    EENTRO =        -0.00000000
  eigenvalues    EBANDS =     -2584.94896957
  atomic energy  EATOM  =      8420.94593319
  ---------------------------------------------------
  free energy    TOTEN  =      -427.10160807 eV

  energy without entropy =     -427.10160807  energy(sigma->0) =     -427.10160807


--------------------------------------------------------------------------------------------------------




--------------------------------------- Iteration      1(  27)  ---------------------------------------


    POTLOK:  cpu time    3.2315: real time    3.2581
    SETDIJ:  cpu time    0.0654: real time    0.0656
    TRIAL :  cpu time    0.8581: real time    0.8667
    CORREC:  cpu time    3.5815: real time    3.6096
    EDDIAG:  cpu time    0.3437: real time    0.3477
    CHARGE:  cpu time    0.1171: real time    0.1183
    --------------------------------------------
      LOOP:  cpu time    8.2624: real time    8.3321

 eigenvalue-minimisations  :     0
 total energy-change (2. order) :-0.4106550E-07  (-0.1658775E-07)
 number of electron     216.0000000 magnetization 
 augmentation part       -0.3992713 magnetization 

 Free energy of the ion-electron system (eV)
  ---------------------------------------------------
  alpha Z        PSCENC =        59.93625244
  Ewald energy   TEWEN  =     34916.46917963
  -Hartree energ DENC   =    -41965.39116198
  -exchange      EXHF   =         0.00000000
  -V(xc)+E(xc)   XCENC  =       442.27380261
  PAW double counting   =    101991.50081109  -101707.88713464
  entropy T*S    EENTRO =        -0.00000000
  eigenvalues    EBANDS =     -2584.94929046
  atomic energy  EATOM  =      8420.94593319
  ---------------------------------------------------
  free energy    TOTEN  =      -427.10160811 eV

  energy without entropy =     -427.10160811  energy(sigma->0) =     -427.10160811


--------------------------------------------------------------------------------------------------------


  average scaling for gradient   0.8789


 average (electrostatic) potential at core
  the test charge radii are     0.5770  0.5955
  (the norm of the test charge is              1.0000)
       1 -85.6844       2 -85.6773       3 -85.6918       4 -85.6967       5 -85.6745
       6 -85.6700       7 -85.6791       8 -85.6542       9 -85.6701      10 -85.6660
[...]
      21 -85.6618      22 -85.6674      23 -85.6897      24 -85.6861      25 -85.6733
      26 -85.6757      27 -85.6699      28 -85.6872      29 -85.6693      30 -85.6731
      31 -85.6974      32 -85.6859      33 -85.6828      34 -85.6756      35 -85.6726
      36 -85.6765      37 -85.6783      38 -85.6817      39 -85.6817      40 -85.6787
      41 -85.6799      42 -85.6838      43 -85.6767      44 -85.6840      45 -85.6721
      46 -85.6703      47 -85.6797      48 -85.6760      49 -85.6805      50 -85.6787
      51 -89.5458      52-120.0545      53-120.0623
 
 
 
 E-fermi :  -4.0415     XC(G=0):  -2.6005     alpha+bet : -2.1113

 Fermi energy:        -4.0414929828

 k-point     1 :       0.0000    0.0000    0.0000
  band No.  band energies     occupation 
      1     -27.2928      2.00000
      2     -26.3021      2.00000
      3     -22.1106      2.00000
      4     -21.1896      2.00000
      5     -21.1786      2.00000
      6     -21.1716      2.00000
      7     -21.1707      2.00000
      8     -21.1679      2.00000
      9     -21.1639      2.00000
     10     -19.3475      2.00000
     11     -19.3429      2.00000
     12     -19.3355      2.00000
     13     -19.3346      2.00000
     14     -19.3324      2.00000
     15     -19.3320      2.00000
     16     -18.4503      2.00000
     17     -18.4465      2.00000
     18     -18.4430      2.00000
     19     -18.4413      2.00000
     20     -18.4395      2.00000
     21     -18.4388      2.00000
     22     -16.2900      2.00000
     23     -16.2877      2.00000
     24     -16.2832      2.00000
     25     -16.2820      2.00000
     26     -16.2778      2.00000
     27     -16.2770      2.00000
     28     -15.3180      2.00000
     29     -15.3160      2.00000
     30     -15.3110      2.00000
     31     -15.3107      2.00000
     32     -15.3084      2.00000
     33     -15.3078      2.00000
     34     -13.9677      2.00000
     35     -13.9661      2.00000
     36     -13.9646      2.00000
     37     -13.9627      2.00000
     38     -13.9621      2.00000
     39     -13.9616      2.00000
     40     -12.1791      2.00000
     41     -11.5962      2.00000
     42     -11.5946      2.00000
     43     -11.5899      2.00000
     44     -11.5892      2.00000
     45     -11.5891      2.00000
     46     -11.5877      2.00000
     47     -11.5096      2.00000
     48     -11.5067      2.00000
     49     -11.5048      2.00000
     50     -11.5044      2.00000
     51     -11.5002      2.00000
     52     -11.4999      2.00000
     53     -11.1530      2.00000
     54     -11.0415      2.00000
     55     -10.9697      2.00000
     56     -10.2265      2.00000
     57     -10.1378      2.00000
     58     -10.1376      2.00000
     59     -10.1359      2.00000
     60     -10.1357      2.00000
     61     -10.1347      2.00000
     62     -10.1335      2.00000
     63      -9.1730      2.00000
     64      -9.1723      2.00000
     65      -9.1702      2.00000
     66      -9.1672      2.00000
     67      -9.1644      2.00000
     68      -9.0577      2.00000
     69      -8.8814      2.00000
     70      -8.8775      2.00000
     71      -8.8764      2.00000
     72      -8.8757      2.00000
     73      -8.8747      2.00000
     74      -8.8727      2.00000
     75      -8.8152      2.00000
     76      -8.8140      2.00000
     77      -8.8133      2.00000
     78      -8.8108      2.00000
     79      -8.8105      2.00000
     80      -8.8084      2.00000
     81      -7.5708      2.00000
     82      -7.4498      2.00000
     83      -7.2329      2.00000
     84      -7.2317      2.00000
     85      -7.2303      2.00000
     86      -7.2271      2.00000
     87      -7.2258      2.00000
     88      -7.2254      2.00000
     89      -7.0498      2.00000
     90      -7.0391      2.00000
     91      -7.0353      2.00000
     92      -7.0248      2.00000
     93      -7.0170      2.00000
     94      -6.8955      2.00000
     95      -6.1517      2.00000
     96      -6.1487      2.00000
     97      -6.1393      2.00000
     98      -6.1383      2.00000
     99      -6.1281      2.00000
    100      -6.0742      2.00000
    101      -5.7550      2.00000
    102      -5.7526      2.00000
    103      -4.1723      2.00000
    104      -4.1654      2.00000
    105      -4.1589      2.00000
    106      -4.1542      2.00000
    107      -4.1514      2.00000
    108      -4.1501      2.00000
    109      -1.3890      0.00000
    110      -1.3816      0.00000
    111      -1.3647      0.00000
    112      -1.3613      0.00000
    113      -1.3587      0.00000
    114      -1.3523      0.00000
    115       0.1303      0.00000
    116       0.4471      0.00000
    117       0.4688      0.00000
    118       0.4836      0.00000
    119       0.4937      0.00000
    120       0.4972      0.00000
    121       0.5017      0.00000
    122       0.8516      0.00000
    123       1.1397      0.00000
    124       1.2506      0.00000
    125       1.3197      0.00000
    126       1.4896      0.00000
    127       1.5109      0.00000
    128       1.5147      0.00000
    129       1.5281      0.00000
    130       1.6237      0.00000
    131       1.6913      0.00000
    132       2.1139      0.00000
    133       2.2313      0.00000
    134       2.2571      0.00000
    135       2.2804      0.00000
    136       2.3872      0.00000


--------------------------------------------------------------------------------------------------------


 soft charge-density along one line, spin component           1
         0         1         2         3         4         5         6         7         8         9
 total charge-density along one line
 
 pseudopotential strength for first ion, spin component:           1
 12.704  21.378  -0.000   0.000   0.000  -0.000   0.000   0.000
 21.378  35.973  -0.000   0.000   0.000  -0.000   0.000   0.000
 -0.000  -0.000  -3.215  -0.000   0.000  -5.762  -0.000   0.000
  0.000   0.000  -0.000  -3.219  -0.000  -0.000  -5.769  -0.000
  0.000   0.000   0.000  -0.000  -3.215   0.000  -0.000  -5.762
 -0.000  -0.000  -5.762  -0.000   0.000 -10.305  -0.000   0.000
  0.000   0.000  -0.000  -5.769  -0.000  -0.000 -10.317  -0.000
  0.000   0.000   0.000  -0.000  -5.762   0.000  -0.000 -10.305
 total augmentation occupancy for first ion, spin component:           1
  7.414  -2.549  -0.001  -0.002   0.000   0.000   0.001  -0.000
 -2.549   0.915   0.000   0.001  -0.000  -0.000  -0.000   0.000
 -0.001   0.000   6.888  -0.008   0.000  -2.287   0.003  -0.000
 -0.002   0.001  -0.008   2.991  -0.000   0.003  -0.762   0.000
  0.000  -0.000   0.000  -0.000   6.888  -0.000   0.000  -2.287
  0.000  -0.000  -2.287   0.003  -0.000   0.774  -0.001   0.000
  0.001  -0.000   0.003  -0.762   0.000  -0.001   0.202   0.000
 -0.000   0.000  -0.000   0.000  -2.287   0.000   0.000   0.774


------------------------ aborting loop because EDIFF is reached ----------------------------------------


    FORLOC:  cpu time    0.0510: real time    0.0515
    FORNL :  cpu time    0.6757: real time    0.6797
    FORCOR:  cpu time    3.1888: real time    3.2169
    OFIELD:  cpu time    0.0014: real time    0.0015

 VOLUME and BASIS-vectors are now :
 -----------------------------------------------------------------------------
  energy-cutoff  :     1000.00
  volume of cell :     2631.08
      direct lattice vectors                 reciprocal lattice vectors
    12.325000000  0.000000000  0.000000000     0.081135903  0.046843835  0.000000000
    -6.162500000 10.673763102  0.000000000     0.000000000  0.093687670  0.000000000
     0.000000000  0.000000000 20.000000000     0.000000000  0.000000000  0.050000000

  length of vectors
    12.325000000 12.325000000 20.000000000     0.093687670  0.093687670  0.050000000


 FORCES acting on ions:
    Electron-Ion                     Ewald-Force                    Non-Local-Force
 -----------------------------------------------------------------------------------------------
   0.130E+02 0.115E+02 0.224E+02   -.130E+02 -.114E+02 -.224E+02   0.144E-01 -.889E-02 0.164E-01
   0.221E+02 0.110E+02 0.311E+02   -.221E+02 -.110E+02 -.310E+02   0.218E-01 -.168E-01 -.293E-02
   0.114E+02 0.286E+02 0.404E+02   -.114E+02 -.287E+02 -.405E+02   -.700E-03 0.588E-01 0.538E-01
   0.192E+02 0.283E+02 0.717E+02   -.193E+02 -.283E+02 -.719E+02   0.846E-01 0.368E-01 0.103E+00
   0.142E+02 0.339E+01 0.224E+02   -.143E+02 -.337E+01 -.224E+02   0.162E-02 -.204E-01 -.278E-02
   0.150E+02 -.249E+01 0.231E+02   -.150E+02 0.251E+01 -.230E+02   -.291E-01 -.690E-02 -.105E-01
   0.319E+02 0.135E+02 0.597E+02   -.320E+02 -.134E+02 -.597E+02   0.621E-01 -.928E-01 -.447E-01
   0.321E+02 -.106E+02 0.649E+02   -.320E+02 0.106E+02 -.648E+02   -.201E-01 -.353E-01 -.222E+00
   -.124E+02 0.269E+02 0.423E+02   0.124E+02 -.268E+02 -.423E+02   -.250E-01 -.132E-01 -.542E-01
   -.241E+02 0.208E+02 0.707E+02   0.242E+02 -.209E+02 -.706E+02   -.745E-01 0.354E-01 -.231E+00
   0.344E+01 -.299E+01 0.172E+02   -.342E+01 0.297E+01 -.172E+02   -.837E-02 0.691E-02 -.566E-02
   0.270E+01 -.218E+01 0.157E+02   -.270E+01 0.218E+01 -.157E+02   -.173E-01 0.752E-02 0.154E-02
   0.119E+02 -.302E+02 0.762E+02   -.121E+02 0.302E+02 -.761E+02   0.119E+00 0.227E-02 -.254E+00
   0.518E+01 -.292E+02 0.413E+02   -.522E+01 0.291E+02 -.413E+02   0.325E-01 0.269E-02 -.460E-01
   -.128E+02 0.806E+01 0.220E+02   0.127E+02 -.805E+01 -.220E+02   0.198E-01 -.111E-01 -.455E-02
   -.194E+02 0.538E+01 0.268E+02   0.194E+02 -.538E+01 -.268E+02   0.390E-02 0.731E-02 -.231E-01
   -.183E+01 -.755E+00 0.150E+02   0.184E+01 0.752E+00 -.150E+02   -.382E-02 -.223E-02 0.158E-02
   0.104E+01 0.681E+01 0.163E+02   -.104E+01 -.681E+01 -.163E+02   -.996E-02 0.419E-02 0.848E-02
   -.405E+01 -.230E+02 0.293E+02   0.402E+01 0.230E+02 -.293E+02   0.376E-01 -.286E-02 0.212E-01
   -.163E+01 -.106E+02 0.184E+02   0.163E+01 0.106E+02 -.184E+02   0.421E-02 -.495E-02 -.108E-02
   0.234E+02 -.101E+02 0.344E+02   -.233E+02 0.101E+02 -.343E+02   -.140E-01 -.238E-02 -.507E-01
   0.134E+02 -.116E+02 0.252E+02   -.134E+02 0.116E+02 -.252E+02   -.176E-01 0.249E-01 -.110E-01
   -.589E+01 0.143E+02 0.981E+02   0.602E+01 -.144E+02 -.983E+02   -.131E+00 0.909E-01 -.596E-01
   -.116E+02 -.228E+02 0.908E+02   0.116E+02 0.229E+02 -.909E+02   0.889E-01 -.103E+00 -.164E-01
   0.596E+01 -.268E+01 0.174E+02   -.593E+01 0.267E+01 -.173E+02   -.157E-01 0.336E-02 -.946E-02
   0.106E+01 0.536E+01 0.176E+02   -.105E+01 -.537E+01 -.176E+02   -.143E-01 0.618E-02 -.155E-02
   -.313E+02 0.335E+01 0.481E+02   0.313E+02 -.341E+01 -.480E+02   0.474E-02 0.384E-01 -.714E-01
   -.279E+02 -.122E+02 0.417E+02   0.280E+02 0.122E+02 -.417E+02   -.476E-01 0.442E-01 0.272E-01
   0.816E+01 -.168E+02 0.267E+02   -.817E+01 0.168E+02 -.266E+02   0.784E-02 0.157E-01 -.162E-01
   0.758E+00 -.599E+01 0.188E+02   -.775E+00 0.597E+01 -.187E+02   0.508E-02 0.136E-01 -.912E-02
   -.234E+02 -.255E+02 0.540E+02   0.234E+02 0.255E+02 -.541E+02   -.639E-01 -.430E-01 0.938E-01
   -.125E+02 -.227E+02 0.319E+02   0.125E+02 0.227E+02 -.319E+02   -.188E-02 -.354E-01 0.325E-01
   0.676E+00 0.282E+01 0.156E+02   -.679E+00 -.281E+01 -.156E+02   0.121E-01 -.100E-01 0.353E-02
   0.197E+01 0.287E+01 0.171E+02   -.198E+01 -.285E+01 -.171E+02   0.102E-02 -.833E-02 -.611E-02
   -.884E+01 0.104E+01 0.193E+02   0.883E+01 -.105E+01 -.193E+02   0.139E-01 0.279E-02 -.227E-02
   -.754E+01 -.298E+01 0.186E+02   0.754E+01 0.298E+01 -.186E+02   -.119E-01 0.102E-01 -.353E-02
   -.156E+02 -.815E+01 0.231E+02   0.156E+02 0.814E+01 -.231E+02   -.180E-01 0.446E-02 0.186E-02
   -.875E+01 -.713E+01 0.182E+02   0.876E+01 0.713E+01 -.182E+02   -.116E-01 0.384E-02 0.106E-01
   -.828E+01 -.109E+02 0.199E+02   0.829E+01 0.109E+02 -.199E+02   -.122E-01 -.107E-01 0.732E-02
   -.121E+01 -.253E+01 0.162E+02   0.120E+01 0.254E+01 -.162E+02   0.679E-03 -.200E-02 0.788E-02
   0.310E+01 0.737E+01 0.172E+02   -.310E+01 -.738E+01 -.172E+02   -.315E-02 0.116E-01 0.765E-02
   0.106E+02 0.165E+02 0.242E+02   -.106E+02 -.165E+02 -.243E+02   0.143E-01 0.170E-01 0.171E-01
   0.831E+00 0.134E+02 0.197E+02   -.821E+00 -.134E+02 -.197E+02   -.863E-02 0.100E-01 -.661E-03
   0.301E+00 0.264E+02 0.334E+02   -.264E+00 -.264E+02 -.335E+02   -.464E-01 0.121E-01 0.232E-01
   -.254E+01 0.508E+01 0.188E+02   0.254E+01 -.507E+01 -.188E+02   0.109E-02 -.992E-02 -.669E-02
   -.110E+02 0.141E+02 0.253E+02   0.110E+02 -.141E+02 -.253E+02   -.434E-02 -.465E-02 -.169E-01
   -.176E+01 -.501E+01 0.169E+02   0.175E+01 0.501E+01 -.169E+02   0.162E-01 0.423E-04 0.734E-03
   -.468E+01 0.193E+01 0.161E+02   0.466E+01 -.192E+01 -.161E+02   0.121E-01 -.177E-02 -.811E-02
   0.346E+00 -.310E+01 0.158E+02   -.344E+00 0.310E+01 -.158E+02   0.813E-02 -.293E-02 0.521E-02
   0.490E+01 0.361E+01 0.161E+02   -.490E+01 -.361E+01 -.161E+02   0.374E-02 0.548E-02 0.379E-02
   0.297E+00 -.175E+00 -.395E+03   -.279E+00 0.160E+00 0.395E+03   -.269E-01 0.126E-01 -.612E-01
   -.229E+03 0.155E+03 -.605E+03   0.279E+03 -.190E+03 0.608E+03   -.508E+02 0.346E+02 -.276E+01
   0.229E+03 -.156E+03 -.584E+03   -.279E+03 0.190E+03 0.580E+03   0.508E+02 -.347E+02 0.368E+01
 -----------------------------------------------------------------------------------------------
   0.592E-01 0.329E-02 -.121E+00   0.000E+00 0.568E-13 -.227E-12   -.592E-01 -.334E-02 0.120E+00
 
 
 POSITION                                       TOTAL-FORCE (eV/Angst)
 -----------------------------------------------------------------------------------
     11.98348      0.00342      0.01417         0.000626     -0.002082      0.000402
     -0.34154      1.42665      0.01100         0.009394      0.007434      0.002262
      2.12355      0.00315      0.01249         0.005235     -0.014010      0.010536
      2.12326      1.42653      0.00641        -0.006163      0.009646     -0.025779
     10.75099      2.13819      0.01213        -0.000680     -0.003669      0.003636
     -1.57382      3.56123      0.01110        -0.006216      0.008056      0.002686
      0.89078      2.13854      0.00548        -0.015148      0.011554     -0.028027
      0.89099      3.56147      0.00181        -0.012920      0.019800     -0.080772
      4.58864      0.00346      0.01135         0.010451      0.033431     -0.006256
      4.58894      1.42623      0.00646         0.019446     -0.016819     -0.106998
      9.51854      4.27281      0.01369         0.008416     -0.012487      0.000334
     -2.80632      5.69591      0.01434        -0.013235      0.007734      0.000953
      2.12300      4.27302      0.00000        -0.018873      0.038984     -0.135589
      2.12335      5.69594      0.00581        -0.006474     -0.041613     -0.004920
      7.05344      0.00333      0.01399         0.004116     -0.001313      0.003795
      7.05353      1.42635      0.01368        -0.006856      0.006422      0.002110
      8.28610      6.40752      0.01601         0.004973     -0.005191     -0.000292
     -4.03885      7.83070      0.01636        -0.006437      0.006628      0.000055
      3.35586      6.40753      0.01007         0.008405      0.003578      0.005791
      3.35599      7.83072      0.01320        -0.002979     -0.003796      0.000553
     -0.34146      4.27290      0.00723         0.027076     -0.017231     -0.000535
     -0.34138      5.69591      0.00946        -0.007120      0.005222      0.006452
      3.35624      2.13791      0.00222         0.006548     -0.011792     -0.197978
      3.35573      3.56155      0.00139         0.003105      0.021069     -0.135656
     -1.57395      6.40758      0.01311         0.014316     -0.002181     -0.000777
     -1.57385      7.83068      0.01438        -0.005063      0.004046      0.000225
      5.82093      2.13784      0.01033        -0.019426     -0.022051     -0.015461
      5.82114      3.56097      0.01156        -0.000023     -0.000491      0.008236
      0.89092      6.40755      0.00907         0.001559      0.000178      0.005832
      0.89106      7.83068      0.01235        -0.011340     -0.002943      0.000429
      4.58871      4.27293      0.00850         0.000369     -0.012359      0.006832
      4.58852      5.69606      0.01149        -0.000481      0.015454      0.005162
      9.51845      0.00337      0.01490         0.008314     -0.007923      0.000306
      9.51855      1.42644      0.01438        -0.004376      0.013443     -0.000377
      8.28593      2.13803      0.01453         0.002536     -0.008016      0.001591
      8.28613      3.56115      0.01464        -0.004513      0.002098      0.000525
      7.05356      4.27269      0.01457         0.000590     -0.001820      0.002083
      7.05362      5.69588      0.01553        -0.003179      0.001657     -0.000091
      5.82112      6.40755      0.01489        -0.000869     -0.001174     -0.000314
      5.82102      7.83073      0.01579        -0.004171      0.004719     -0.000289
      7.05363      8.54227      0.01631         0.002074     -0.003224      0.001007
     -5.27149      9.96549      0.01495        -0.001376     -0.000921     -0.000968
     -2.80638      8.54234      0.01558         0.002067      0.001537      0.000240
     -2.80627      9.96553      0.01362        -0.008817     -0.001375      0.007087
     -0.34149      8.54239      0.01378         0.007079      0.000132      0.000842
     -0.34138      9.96550      0.01354        -0.007818      0.003644      0.004273
      2.12343      8.54232      0.01336         0.007719     -0.000185      0.000713
      2.12354      9.96544      0.01469        -0.009073      0.002644     -0.002038
      4.58846      8.54235      0.01505         0.010562     -0.007774      0.001185
      4.58853      9.96550      0.01517        -0.002292      0.006559      0.000892
      3.04930      2.68154      2.80616        -0.008122     -0.002725      0.113213
      4.02070      2.02068      2.87058        -0.528303      0.386631      0.208698
      2.07767      3.34267      2.74670         0.557366     -0.417137      0.334182
 -----------------------------------------------------------------------------------
    total drift:                               -0.000024     -0.000050     -0.000586


--------------------------------------------------------------------------------------------------------



  FREE ENERGIE OF THE ION-ELECTRON SYSTEM (eV)
  ---------------------------------------------------
  free  energy   TOTEN  =      -427.10160811 eV

  energy  without entropy=     -427.10160811  energy(sigma->0) =     -427.10160811
 


--------------------------------------------------------------------------------------------------------


    POTLOK:  cpu time    3.4214: real time    3.4501


--------------------------------------------------------------------------------------------------------


 writing wavefunctions
     LOOP+:  cpu time  218.0131: real time  220.5237
    4ORBIT:  cpu time    0.0000: real time    0.0000

 total amount of memory used by VASP MPI-rank0    85439. kBytes
=======================================================================

   base      :      30000. kBytes
   nonl-proj :       6586. kBytes
   fftplans  :      14299. kBytes
   grid      :      23511. kBytes
   one-center:          6. kBytes
   wavefun   :      11037. kBytes
 
  
  
 General timing and accounting informations for this job:
 ========================================================
  
                  Total CPU time used (sec):      253.579
                            User time (sec):      233.510
                          System time (sec):       20.069
                         Elapsed time (sec):      258.002
  
                   Maximum memory used (kb):      680240.
                   Average memory used (kb):          N/A
  
                          Minor page faults:       382123
                          Major page faults:          103
                 Voluntary context switches:         3628
