 vasp.6.2.1 16May21 (build Nov 06 2021 14:46:37) complex                        
  
 executed on             LinuxIFC date 2025.03.03  18:03:18
 running on  112 total cores
 distrk:  each k-point on  112 cores,    1 groups
 distr:  one band on NCORE=  28 cores,    4 groups


--------------------------------------------------------------------------------------------------------


 INCAR:
   ALGO = Conjugate
   NPAR = 4
   ISMEAR = 0
   SIGMA = 0.01
   PREC = Accurate
   EDIFF = 1E-7
   ENCUT = 1000
   ISIF = 0
   GGA = MK
   LUSE_VDW = .TRUE.
   PARAM1 = 0.1234
   PARAM2 = 0.711357
   ZAB_VDW = -1.8867
   AGGAC = 0.0000
   LASPH = .TRUE.

 POTCAR:    PAW_PBE C_h 06Feb2004                 
 POTCAR:    PAW_PBE O_h 06Feb2004                 
 -----------------------------------------------------------------------------
|                                                                             |
|           W    W    AA    RRRRR   N    N  II  N    N   GGGG   !!!           |
|           W    W   A  A   R    R  NN   N  II  NN   N  G    G  !!!           |
|           W    W  A    A  R    R  N N  N  II  N N  N  G       !!!           |
|           W WW W  AAAAAA  RRRRR   N  N N  II  N  N N  G  GGG   !            |
|           WW  WW  A    A  R   R   N   NN  II  N   NN  G    G                |
|           W    W  A    A  R    R  N    N  II  N    N   GGGG   !!!           |
|                                                                             |
|     For optimal performance we recommend to set                             |
|       NCORE = 2 up to number-of-cores-per-socket                            |
|     NCORE specifies how many cores store one orbital (NPAR=cpu/NCORE).      |
|     This setting can greatly improve the performance of VASP for DFT.       |
|     The default, NCORE=1 might be grossly inefficient on modern             |
|     multi-core architectures or massively parallel machines. Do your        |
|     own testing! More info at https://www.vasp.at/wiki/index.php/NCORE      |
|     Unfortunately you need to use the default for GW and RPA                |
|     calculations (for HF NCORE is supported but not extensively tested      |
|     yet).                                                                   |
|                                                                             |
 -----------------------------------------------------------------------------

 -----------------------------------------------------------------------------
|                                                                             |
|               ----> ADVICE to this user running VASP <----                  |
|                                                                             |
|     You have switched on vdW-DFT.                                           |
|     This routine was written and supplied by Jiri Klimes. We recommend      |
|     that you carefully read and cite the following publications:            |
|       J. Klimes, D.R. Bowler, A. Michelides                                 |
|          J. Phys.: Cond Matt. 22 022201 (2010)                              |
|       J. Klimes, D.R. Bowler, A. Michelides                                 |
|          Phys. Rev. B. 83, 195131 (2011)                                    |
|     and references therein.                                                 |
|                                                                             |
 -----------------------------------------------------------------------------

 POTCAR:    PAW_PBE C_h 06Feb2004                 
   VRHFIN =C: s2p2                                                                                  
   LEXCH  = PE                                                                                      
   EATOM  =   147.1560 eV,   10.8157 Ry                                                             
                                                                                                    
   TITEL  = PAW_PBE C_h 06Feb2004                                                                   
   LULTRA =        F    use ultrasoft PP ?                                                          
   IUNSCR =        1    unscreen: 0-lin 1-nonlin 2-no                                               
   RPACOR =    0.800    partial core radius                                                         
   POMASS =   12.011; ZVAL   =    4.000    mass and valenz                                          
   RCORE  =    1.100    outmost cutoff radius                                                       
   RWIGS  =    1.630; RWIGS  =    0.863    wigner-seitz radius (au A)                               
   ENMAX  =  700.000; ENMIN  =  500.000 eV                                                          
   ICORE  =        2    local potential                                                             
   LCOR   =        T    correct aug charges                                                         
   LPAW   =        T    paw PP                                                                      
   EAUG   =  946.768                                                                                
   DEXC   =    0.000                                                                                
   RMAX   =    1.128    core radius for proj-oper                                                   
   RAUG   =    1.300    factor for augmentation sphere                                              
   RDEP   =    1.162    radius for radial grids                                                     
   RDEPT  =    1.088    core radius for aug-charge                                                  
                                                                                                    
   Atomic configuration                                                                             
    4 entries                                                                                       
     n  l   j            E        occ.                                                              
     1  0  0.50      -273.3789   2.0000                                                             
     2  0  0.50       -13.7508   2.0000                                                             
     2  1  0.50        -5.2854   2.0000                                                             
     3  2  1.50        -5.4423   0.0000                                                             
   Description                                                                                      
     l       E           TYP  RCUT    TYP  RCUT                                                     
     0    -13.7508458     23  1.100                                                                 
     0     -8.2022199     23  1.100                                                                 
     1     -5.2854383     23  1.100                                                                 
     1      1.1560700     23  1.100                                                                 
     2     -5.4423304      7  1.100                                                                 
  local pseudopotential read in
  partial core-charges read in
  partial kinetic energy density read in
  atomic valenz-charges read in
  non local Contribution for L=           0  read in
    real space projection operators read in
  non local Contribution for L=           0  read in
    real space projection operators read in
  non local Contribution for L=           1  read in
    real space projection operators read in
  non local Contribution for L=           1  read in
    real space projection operators read in
    PAW grid and wavefunctions read in
 
   number of l-projection  operators is LMAX  =           4
   number of lm-projection operators is LMMAX =           8
 
 POTCAR:    PAW_PBE O_h 06Feb2004                 
   VRHFIN =O: s2p4                                                                                  
   LEXCH  = PE                                                                                      
   EATOM  =   432.3788 eV,   31.7789 Ry                                                             
                                                                                                    
   TITEL  = PAW_PBE O_h 06Feb2004                                                                   
   LULTRA =        F    use ultrasoft PP ?                                                          
   IUNSCR =        1    unscreen: 0-lin 1-nonlin 2-no                                               
   RPACOR =    0.800    partial core radius                                                         
   POMASS =   16.000; ZVAL   =    6.000    mass and valenz                                          
   RCORE  =    1.100    outmost cutoff radius                                                       
   RWIGS  =    1.400; RWIGS  =    0.741    wigner-seitz radius (au A)                               
   ENMAX  =  700.000; ENMIN  =  500.000 eV                                                          
   ICORE  =        2    local potential                                                             
   LCOR   =        T    correct aug charges                                                         
   LPAW   =        T    paw PP                                                                      
   EAUG   =  888.804                                                                                
   DEXC   =    0.000                                                                                
   RMAX   =    1.128    core radius for proj-oper                                                   
   RAUG   =    1.300    factor for augmentation sphere                                              
   RDEP   =    1.125    radius for radial grids                                                     
   RDEPT  =    1.088    core radius for aug-charge                                                  
                                                                                                    
   Atomic configuration                                                                             
    4 entries                                                                                       
     n  l   j            E        occ.                                                              
     1  0  0.50      -514.6923   2.0000                                                             
     2  0  0.50       -23.9615   2.0000                                                             
     2  1  0.50        -9.0305   4.0000                                                             
     3  2  1.50        -9.5241   0.0000                                                             
   Description                                                                                      
     l       E           TYP  RCUT    TYP  RCUT                                                     
     0    -23.9615319     23  1.100                                                                 
     0    -25.3221145     23  1.100                                                                 
     1     -9.0304911     23  1.100                                                                 
     1     -5.4802209     23  1.100                                                                 
     2     -9.5240782      7  1.100                                                                 
  local pseudopotential read in
  partial core-charges read in
  partial kinetic energy density read in
  atomic valenz-charges read in
  non local Contribution for L=           0  read in
    real space projection operators read in
  non local Contribution for L=           0  read in
    real space projection operators read in
  non local Contribution for L=           1  read in
    real space projection operators read in
  non local Contribution for L=           1  read in
    real space projection operators read in
    PAW grid and wavefunctions read in
 
   number of l-projection  operators is LMAX  =           4
   number of lm-projection operators is LMMAX =           8
 
 -----------------------------------------------------------------------------
|                                                                             |
|               ----> ADVICE to this user running VASP <----                  |
|                                                                             |
|     You have a (more or less) 'large supercell' and for larger cells it     |
|     might be more efficient to use real-space projection operators.         |
|     Therefore, try LREAL= Auto in the INCAR file.                           |
|     Mind: For very accurate calculation, you might also keep the            |
|     reciprocal projection scheme (i.e. LREAL=.FALSE.).                      |
|                                                                             |
 -----------------------------------------------------------------------------

 -----------------------------------------------------------------------------
|                                                                             |
|               ----> ADVICE to this user running VASP <----                  |
|                                                                             |
|     You enforced a specific xc type in the INCAR file but a different       |
|     type was found in the POTCAR file.                                      |
|     I HOPE YOU KNOW WHAT YOU ARE DOING!                                     |
|                                                                             |
 -----------------------------------------------------------------------------

  PAW_PBE C_h 06Feb2004                 :
 energy of atom  1       EATOM= -147.1560
 kinetic energy error for atom=    0.0031 (will be added to EATOM!!)
  PAW_PBE O_h 06Feb2004                 :
 energy of atom  2       EATOM= -432.3788
 kinetic energy error for atom=    0.0171 (will be added to EATOM!!)
 
 
 POSCAR:  C  O
  positions in cartesian coordinates
  No initial velocities read in
 exchange correlation table for  LEXCH =       43
   RHO(1)=    0.500       N(1)  =     2000
   RHO(2)=  100.500       N(2)  =     4000
 


--------------------------------------------------------------------------------------------------------


 ion  position               nearest neighbor table
   1  0.972  0.000  0.001-  50 1.42   2 1.42  42 1.42
   2  0.039  0.134  0.001-   5 1.42   7 1.42   1 1.42
   3  0.172  0.000  0.001-  42 1.42  44 1.42   4 1.42
   4  0.239  0.134  0.000-   7 1.42   3 1.42  23 1.42
   5  0.972  0.200  0.001-   6 1.42   2 1.42  34 1.42
   6  0.039  0.334  0.001-   5 1.42  21 1.42  11 1.42
   7  0.172  0.200  0.000-   8 1.42   2 1.42   4 1.42
   8  0.239  0.334  0.000-  13 1.42   7 1.42  21 1.42
   9  0.372  0.000  0.001-  10 1.42  44 1.42  46 1.42
  10  0.439  0.134  0.000-  27 1.42   9 1.42  23 1.42
  11  0.972  0.400  0.001-  12 1.42  36 1.42   6 1.42
  12  0.039  0.534  0.001-  25 1.42  11 1.42  17 1.42
  13  0.372  0.400  0.000-   8 1.42  14 1.42  24 1.42
  14  0.439  0.534  0.000-  13 1.42  29 1.42  19 1.42
  15  0.572  0.000  0.001-  46 1.42  16 1.42  48 1.42
  16  0.639  0.134  0.001-  15 1.42  35 1.42  27 1.42
  17  0.972  0.600  0.001-  38 1.42  18 1.42  12 1.42
  18  0.039  0.734  0.001-  43 1.42  41 1.42  17 1.42
  19  0.572  0.600  0.001-  14 1.42  20 1.42  32 1.42
  20  0.639  0.734  0.001-  49 1.42  19 1.42  47 1.42
  21  0.172  0.400  0.000-  22 1.42   8 1.42   6 1.42
  22  0.239  0.534  0.000-  21 1.42  29 1.42  25 1.42
  23  0.372  0.200  0.000-  10 1.42   4 1.42  24 1.42
  24  0.439  0.334  0.000-  13 1.42  31 1.42  23 1.42
  25  0.172  0.600  0.001-  26 1.42  12 1.42  22 1.42
  26  0.239  0.734  0.001-  25 1.42  45 1.42  43 1.42
  27  0.572  0.200  0.001-  10 1.42  28 1.42  16 1.42
  28  0.639  0.334  0.001-  27 1.42  37 1.42  31 1.42
  29  0.372  0.600  0.000-  22 1.42  14 1.42  30 1.42
  30  0.439  0.734  0.001-  47 1.42  29 1.42  45 1.42
  31  0.572  0.400  0.000-  32 1.42  28 1.42  24 1.42
  32  0.639  0.534  0.001-  31 1.42  39 1.42  19 1.42
  33  0.772  0.000  0.001-  34 1.42  48 1.42  50 1.42
  34  0.839  0.134  0.001-  33 1.42   5 1.42  35 1.42
  35  0.772  0.200  0.001-  36 1.42  16 1.42  34 1.42
  36  0.839  0.334  0.001-  35 1.42  11 1.42  37 1.42
  37  0.772  0.400  0.001-  28 1.42  38 1.42  36 1.42
  38  0.839  0.534  0.001-  17 1.42  37 1.42  39 1.42
  39  0.772  0.600  0.001-  40 1.42  38 1.42  32 1.42
  40  0.839  0.734  0.001-  39 1.42  49 1.42  41 1.42
  41  0.972  0.800  0.001-  18 1.42  42 1.42  40 1.42
  42  0.039  0.934  0.001-   3 1.42  41 1.42   1 1.42
  43  0.172  0.800  0.001-  18 1.42  44 1.42  26 1.42
  44  0.239  0.934  0.001-   9 1.42  43 1.42   3 1.42
  45  0.372  0.800  0.001-  26 1.42  46 1.42  30 1.42
  46  0.439  0.934  0.001-  15 1.42  45 1.42   9 1.42
  47  0.572  0.800  0.001-  30 1.42  48 1.42  20 1.42
  48  0.639  0.934  0.001-  47 1.42  33 1.42  15 1.42
  49  0.772  0.800  0.001-  50 1.42  20 1.42  40 1.42
  50  0.839  0.934  0.001-  49 1.42   1 1.42  33 1.42
  51  0.373  0.251  0.250-  52 1.18  53 1.18
  52  0.421  0.189  0.253-  51 1.18
  53  0.325  0.313  0.247-  51 1.18
 
  LATTYP: Found a hexagonal cell.
 ALAT       =    12.3250000000
 C/A-ratio  =     1.6227180527
  
  Lattice vectors:
  
 A1 = (  12.3250000000,   0.0000000000,   0.0000000000)
 A2 = (  -6.1625000000,  10.6737631016,   0.0000000000)
 A3 = (   0.0000000000,   0.0000000000,  20.0000000000)


Analysis of symmetry for initial positions (statically):
=====================================================================
 Subroutine PRICEL returns:
 Original cell was already a primitive cell.
 

 Routine SETGRP: Setting up the symmetry group for a 
 hexagonal supercell.


 Subroutine GETGRP returns: Found  1 space group operations
 (whereof  1 operations were pure point group operations)
 out of a pool of 24 trial point group operations.


The static configuration has the point symmetry C_1 .


Analysis of symmetry for dynamics (positions and initial velocities):
=====================================================================
 Subroutine PRICEL returns:
 Original cell was already a primitive cell.
 

 Routine SETGRP: Setting up the symmetry group for a 
 hexagonal supercell.


 Subroutine GETGRP returns: Found  1 space group operations
 (whereof  1 operations were pure point group operations)
 out of a pool of 24 trial point group operations.


The dynamic configuration has the point symmetry C_1 .


 Subroutine INISYM returns: Found  1 space group operations
 (whereof  1 operations are pure point group operations),
 and found     1 'primitive' translations


----------------------------------------------------------------------------------------

                                     Primitive cell                                     

  volume of cell :    2631.0826

  direct lattice vectors                    reciprocal lattice vectors
    12.325000000  0.000000000  0.000000000     0.081135903  0.046843835  0.000000000
    -6.162500000 10.673763102  0.000000000     0.000000000  0.093687670  0.000000000
     0.000000000  0.000000000 20.000000000     0.000000000  0.000000000  0.050000000

  length of vectors
    12.325000000 12.325000000 20.000000000     0.093687670  0.093687670  0.050000000

  position of ions in fractional coordinates (direct lattice)
     0.972450841  0.000320818  0.000708389
     0.039118382  0.133659505  0.000550216
     0.172443627  0.000295449  0.000624535
     0.239096278  0.133647917  0.000320585
     0.972452058  0.200322012  0.000606523
     0.039128360  0.333643771  0.000555187
     0.172451764  0.200354552  0.000273959
     0.239124359  0.333665720  0.000090325
     0.372465565  0.000324403  0.000567391
     0.439137473  0.133619939  0.000322923
     0.972449824  0.400309362  0.000684513
     0.039124981  0.533636789  0.000716763
     0.372416176  0.400329481  0.000000000
     0.439099602  0.533638981  0.000290518
     0.572443676  0.000312125  0.000699475
     0.639110207  0.133631751  0.000684093
     0.972452703  0.600305653  0.000800361
     0.039124495  0.733640359  0.000818141
     0.572433471  0.600306242  0.000503618
     0.639111888  0.733641879  0.000659881
     0.172454630  0.400318228  0.000361306
     0.239120185  0.533636548  0.000473136
     0.372459750  0.200295993  0.000111246
     0.439107096  0.333673419  0.000069702
     0.172452155  0.600311506  0.000655425
     0.239123371  0.733638574  0.000718912
     0.572431082  0.200289171  0.000516621
     0.639112773  0.333618630  0.000577970
     0.372439808  0.600308022  0.000453556
     0.439116090  0.733637858  0.000617737
     0.572469358  0.400320504  0.000424897
     0.639119408  0.533650873  0.000574513
     0.772445723  0.000315427  0.000745201
     0.839116277  0.133640203  0.000719132
     0.772440513  0.200307432  0.000726291
     0.839120241  0.333635728  0.000731834
     0.772446320  0.400298367  0.000728722
     0.839118980  0.533633964  0.000776376
     0.772456143  0.600308173  0.000744639
     0.839115033  0.733643180  0.000789390
     0.972455313  0.800305582  0.000815291
     0.039114714  0.933643289  0.000747563
     0.172457971  0.800312211  0.000779216
     0.239134551  0.933647193  0.000681063
     0.372451396  0.800316674  0.000689249
     0.439124489  0.933644769  0.000676788
     0.572441101  0.800310054  0.000668168
     0.639115067  0.933638985  0.000734556
     0.772445098  0.800313187  0.000752577
     0.839116614  0.933644338  0.000758538
     0.373021009  0.251226878  0.250000000
     0.420879805  0.189313152  0.253221093
     0.325156981  0.313167186  0.247027256

  ion indices of the primitive-cell ions
   primitive index   ion index
                 1           1
                 2           2
                 3           3
                 4           4
                 5           5
                 6           6
                 7           7
                 8           8
                 9           9
                10          10
                11          11
                12          12
                13          13
                14          14
                15          15
                16          16
                17          17
                18          18
                19          19
                20          20
                21          21
                22          22
                23          23
                24          24
                25          25
                26          26
                27          27
                28          28
                29          29
                30          30
                31          31
                32          32
                33          33
                34          34
                35          35
                36          36
                37          37
                38          38
                39          39
                40          40
                41          41
                42          42
                43          43
                44          44
                45          45
                46          46
                47          47
                48          48
                49          49
                50          50
                51          51
                52          52
                53          53

----------------------------------------------------------------------------------------

 
 
 KPOINTS: auto                                    

Automatic generation of k-mesh.
 Grid dimensions read from file:
 generate k-points for:    1    1    1

 Generating k-lattice:

  Cartesian coordinates                     Fractional coordinates (reciprocal lattice)
     0.081135903  0.046843835  0.000000000     1.000000000 -0.000000000  0.000000000
     0.000000000  0.093687670  0.000000000     0.000000000  1.000000000  0.000000000
     0.000000000  0.000000000  0.050000000     0.000000000  0.000000000  1.000000000

  Length of vectors
     0.093687670  0.093687670  0.050000000

  Shift w.r.t. Gamma in fractional coordinates (k-lattice)
     0.000000000  0.000000000  0.000000000

 
 Subroutine IBZKPT returns following result:
 ===========================================
 
 Found      1 irreducible k-points:
 
 Following reciprocal coordinates:
            Coordinates               Weight
  0.000000  0.000000  0.000000      1.000000
 
 Following cartesian coordinates:
            Coordinates               Weight
  0.000000  0.000000  0.000000      1.000000
 


--------------------------------------------------------------------------------------------------------




 Dimension of arrays:
   k-points           NKPTS =      1   k-points in BZ     NKDIM =      1   number of bands    NBANDS=    136
   number of dos      NEDOS =    301   number of ions     NIONS =     53
   non local maximal  LDIM  =      4   non local SUM 2l+1 LMDIM =      8
   total plane-waves  NPLWV = ******
   max r-space proj   IRMAX =      1   max aug-charges    IRDMAX=   9736
   dimension x,y,z NGX =   128 NGY =  128 NGZ =  210
   dimension x,y,z NGXF=   256 NGYF=  256 NGZF=  420
   support grid    NGXF=   256 NGYF=  256 NGZF=  420
   ions per type =              51   2
   NGX,Y,Z   is equivalent  to a cutoff of  17.27, 17.27, 17.46 a.u.
   NGXF,Y,Z  is equivalent  to a cutoff of  34.53, 34.53, 34.91 a.u.

 SYSTEM =  unknown system                          
 POSCAR =   C  O                                   

 Startparameter for this run:
   NWRITE =      2    write-flag & timer
   PREC   = accura    normal or accurate (medium, high low for compatibility)
   ISTART =      0    job   : 0-new  1-cont  2-samecut
   ICHARG =      2    charge: 1-file 2-atom 10-const
   ISPIN  =      1    spin polarized calculation?
   LNONCOLLINEAR =      F non collinear calculations
   LSORBIT =      F    spin-orbit coupling
   INIWAV =      1    electr: 0-lowe 1-rand  2-diag
   LASPH  =      T    aspherical Exc in radial PAW
 Electronic Relaxation 1
   ENCUT  = 1000.0 eV  73.50 Ry    8.57 a.u.  31.78 31.78 51.57*2*pi/ulx,y,z
   ENINI  = 1000.0     initial cutoff
   ENAUG  =  946.8 eV  augmentation charge cutoff
   NELM   =     60;   NELMIN=  2; NELMDL= -5     # of ELM steps 
   EDIFF  = 0.1E-06   stopping-criterion for ELM
   LREAL  =      F    real-space projection
   NLSPLINE    = F    spline interpolate recip. space projectors
   LCOMPAT=      F    compatible to vasp.4.4
   GGA_COMPAT  = T    GGA compatible to vasp.4.4-vasp.4.6
   LMAXPAW     = -100 max onsite density
   LMAXMIX     =    2 max onsite mixed and CHGCAR
   VOSKOWN=      0    Vosko Wilk Nusair interpolation
   ROPT   =    0.00000   0.00000
 Ionic relaxation
   EDIFFG = 0.1E-05   stopping-criterion for IOM
   NSW    =      0    number of steps for IOM
   NBLOCK =      1;   KBLOCK =      1    inner block; outer block 
   IBRION =     -1    ionic relax: 0-MD 1-quasi-New 2-CG
   NFREE  =      0    steps in history (QN), initial steepest desc. (CG)
   ISIF   =      0    stress and relaxation
   IWAVPR =     10    prediction:  0-non 1-charg 2-wave 3-comb
   ISYM   =      2    0-nonsym 1-usesym 2-fastsym
   LCORR  =      T    Harris-Foulkes like correction to forces

   POTIM  = 0.5000    time-step for ionic-motion
   TEIN   =    0.0    initial temperature
   TEBEG  =    0.0;   TEEND  =   0.0 temperature during run
   SMASS  =  -3.00    Nose mass-parameter (am)
   estimated Nose-frequenzy (Omega)   =  0.10E-29 period in steps = 0.13E+47 mass=  -0.347E-26a.u.
   SCALEE = 1.0000    scale energy and forces
   NPACO  =    256;   APACO  = 16.0  distance and # of slots for P.C.
   PSTRESS=    0.0 pullay stress

  Mass of Ions in am
   POMASS =  12.01 16.00
  Ionic Valenz
   ZVAL   =   4.00  6.00
  Atomic Wigner-Seitz radii
   RWIGS  =  -1.00 -1.00
  virtual crystal weights 
   VCA    =   1.00  1.00
   NELECT =     216.0000    total number of electrons
   NUPDOWN=      -1.0000    fix difference up-down

 DOS related values:
   EMIN   =  10.00;   EMAX   =-10.00  energy-range for DOS
   EFERMI =   0.00
   ISMEAR =     0;   SIGMA  =   0.01  broadening in eV -4-tet -1-fermi 0-gaus

 Electronic relaxation 2 (details)
   IALGO  =     58    algorithm
   LDIAG  =      T    sub-space diagonalisation (order eigenvalues)
   LSUBROT=      F    optimize rotation matrix (better conditioning)
   TURBO    =      0    0=normal 1=particle mesh
   IRESTART =      0    0=no restart 2=restart with 2 vectors
   NREBOOT  =      0    no. of reboots
   NMIN     =      0    reboot dimension
   EREF     =   0.00    reference energy to select bands
   IMIX   =      4    mixing-type and parameters
     AMIX     =   0.40;   BMIX     =  1.00
     AMIX_MAG =   1.60;   BMIX_MAG =  1.00
     AMIN     =   0.10
     WC   =   100.;   INIMIX=   1;  MIXPRE=   1;  MAXMIX= -45

 Intra band minimization:
   WEIMIN = 0.0000     energy-eigenvalue tresh-hold
   EBREAK =  0.18E-09  absolut break condition
   DEPER  =   0.30     relativ break condition  

   TIME   =   0.40     timestep for ELM

  volume/ion in A,a.u.               =      49.64       335.01
  Fermi-wavevector in a.u.,A,eV,Ry     =   0.711510  1.344560  6.887909  0.506247
  Thomas-Fermi vector in A             =   1.798641
 
 Write flags
   LWAVE        =      T    write WAVECAR
   LDOWNSAMPLE  =      F    k-point downsampling of WAVECAR
   LCHARG       =      T    write CHGCAR
   LVTOT        =      F    write LOCPOT, total local potential
   LVHAR        =      F    write LOCPOT, Hartree potential only
   LELF         =      F    write electronic localiz. function (ELF)
   LORBIT       =      0    0 simple, 1 ext, 2 COOP (PROOUT), +10 PAW based schemes


 Dipole corrections
   LMONO  =      F    monopole corrections only (constant potential shift)
   LDIPOL =      F    correct potential (dipole corrections)
   IDIPOL =      0    1-x, 2-y, 3-z, 4-all directions 
   EPSILON=  1.0000000 bulk dielectric constant

 Exchange correlation treatment:
   GGA     =    MK    GGA type
   LEXCH   =    43    internal setting for exchange type
   VOSKOWN=      0    Vosko Wilk Nusair interpolation
   LHFCALC =     F    Hartree Fock is set to
   LHFONE  =     F    Hartree Fock one center treatment
   AEXX    =    0.0000 exact exchange contribution

 vdW DFT:
   LUSE_VDW   =     T    switch on vdW DFT
   Zab_VDW    =******    correlation parameter
   PARAM1     =0.1234
   PARAM2     =0.7114
   PARAM3     =0.0000
   -- rVV10 --
   BPARAM     = 6.3000
   CPARAM     = 0.0093

 Linear response parameters
   LEPSILON=     F    determine dielectric tensor
   LRPA    =     F    only Hartree local field effects (RPA)
   LNABLA  =     F    use nabla operator in PAW spheres
   LVEL    =     F    velocity operator in full k-point grid
   LINTERFAST=   F  fast interpolation
   KINTER  =     0    interpolate to denser k-point grid
   CSHIFT  =0.1000    complex shift for real part using Kramers Kronig
   OMEGAMAX=  -1.0    maximum frequency
   DEG_THRESHOLD= 0.2000000E-02 threshold for treating states as degnerate
   RTIME   =   -0.100 relaxation time in fs
  (WPLASMAI=    0.000 imaginary part of plasma frequency in eV, 0.658/RTIME)
   DFIELD  = 0.0000000 0.0000000 0.0000000 field for delta impulse in time
 
 Orbital magnetization related:
   ORBITALMAG=     F  switch on orbital magnetization
   LCHIMAG   =     F  perturbation theory with respect to B field
   DQ        =  0.001000  dq finite difference perturbation B field
   LLRAUG    =     F  two centre corrections for induced B field



--------------------------------------------------------------------------------------------------------


 Static calculation
 charge density and potential will be updated during run
 non-spin polarized calculation
 Conjugate gradient for all bands (Freysoldt, et al. PRB 79, 241103 (2009))
 preconditioned conjugated gradient                                        
 perform sub-space diagonalisation
    before iterative eigenvector-optimisation
 modified Broyden-mixing scheme, WC =      100.0
 initial mixing is a Kerker type mixing with AMIX =  0.4000 and BMIX =      1.0000
 Hartree-type preconditioning will be used
 using additional bands           28
 reciprocal scheme for non local part
 use partial core corrections
 no Harris-corrections to forces 
 use gradient corrections 
 use of overlap-Matrix (Vanderbilt PP)
 Gauss-broadening in eV      SIGMA  =   0.01


--------------------------------------------------------------------------------------------------------


  energy-cutoff  :     1000.00
  volume of cell :     2631.08
      direct lattice vectors                 reciprocal lattice vectors
    12.325000000  0.000000000  0.000000000     0.081135903  0.046843835  0.000000000
    -6.162500000 10.673763102  0.000000000     0.000000000  0.093687670  0.000000000
     0.000000000  0.000000000 20.000000000     0.000000000  0.000000000  0.050000000

  length of vectors
    12.325000000 12.325000000 20.000000000     0.093687670  0.093687670  0.050000000


 
 k-points in units of 2pi/SCALE and weight: auto                                    
   0.00000000  0.00000000  0.00000000       1.000
 
 k-points in reciprocal lattice and weights: auto                                    
   0.00000000  0.00000000  0.00000000       1.000
 
 position of ions in fractional coordinates (direct lattice) 
   0.97245084  0.00032082  0.00070839
   0.03911838  0.13365950  0.00055022
   0.17244363  0.00029545  0.00062454
   0.23909628  0.13364792  0.00032058
   0.97245206  0.20032201  0.00060652
   0.03912836  0.33364377  0.00055519
   0.17245176  0.20035455  0.00027396
   0.23912436  0.33366572  0.00009033
   0.37246557  0.00032440  0.00056739
   0.43913747  0.13361994  0.00032292
   0.97244982  0.40030936  0.00068451
   0.03912498  0.53363679  0.00071676
   0.37241618  0.40032948  0.00000000
   0.43909960  0.53363898  0.00029052
   0.57244368  0.00031213  0.00069947
   0.63911021  0.13363175  0.00068409
   0.97245270  0.60030565  0.00080036
   0.03912449  0.73364036  0.00081814
   0.57243347  0.60030624  0.00050362
   0.63911189  0.73364188  0.00065988
   0.17245463  0.40031823  0.00036131
   0.23912018  0.53363655  0.00047314
   0.37245975  0.20029599  0.00011125
   0.43910710  0.33367342  0.00006970
   0.17245216  0.60031151  0.00065542
   0.23912337  0.73363857  0.00071891
   0.57243108  0.20028917  0.00051662
   0.63911277  0.33361863  0.00057797
   0.37243981  0.60030802  0.00045356
   0.43911609  0.73363786  0.00061774
   0.57246936  0.40032050  0.00042490
   0.63911941  0.53365087  0.00057451
   0.77244572  0.00031543  0.00074520
   0.83911628  0.13364020  0.00071913
   0.77244051  0.20030743  0.00072629
   0.83912024  0.33363573  0.00073183
   0.77244632  0.40029837  0.00072872
   0.83911898  0.53363396  0.00077638
   0.77245614  0.60030817  0.00074464
   0.83911503  0.73364318  0.00078939
   0.97245531  0.80030558  0.00081529
   0.03911471  0.93364329  0.00074756
   0.17245797  0.80031221  0.00077922
   0.23913455  0.93364719  0.00068106
   0.37245140  0.80031667  0.00068925
   0.43912449  0.93364477  0.00067679
   0.57244110  0.80031005  0.00066817
   0.63911507  0.93363899  0.00073456
   0.77244510  0.80031319  0.00075258
   0.83911661  0.93364434  0.00075854
   0.37302101  0.25122688  0.25000000
   0.42087980  0.18931315  0.25322109
   0.32515698  0.31316719  0.24702726
 
 position of ions in cartesian coordinates  (Angst):
  11.98347958  0.00342433  0.01416777
  -0.34154264  1.42664989  0.01100432
   2.12354700  0.00315355  0.01249070
   2.12325634  1.42652621  0.00641170
  10.75098721  2.13818970  0.01213047
  -1.57382270  3.56123457  0.01110375
   0.89078307  2.13853702  0.00547917
   0.89099273  3.56146885  0.00180651
   4.58863896  0.00346260  0.01134782
   4.58893648  1.42622757  0.00645846
   9.51853763  4.27280730  0.01369027
  -2.80632132  5.69591267  0.01433526
   2.12299894  4.27302204  0.00000000
   2.12335237  5.69593607  0.00581036
   7.05344483  0.00333155  0.01398950
   7.05352764  1.42635365  0.01368187
   8.28609598  6.40752033  0.01600723
  -4.03884931  7.83070339  0.01636283
   3.35585531  6.40752662  0.01007237
   3.35598594  7.83071962  0.01319763
  -0.34145776  4.27290193  0.00722612
  -0.34137895  5.69591010  0.00946273
   3.35624236  2.13791198  0.00222492
   3.35573251  3.56155103  0.00139405
  -1.57394684  6.40758280  0.01310850
  -1.57385216  7.83068434  0.01437823
   5.82093107  2.13783916  0.01033241
   5.82114012  3.56096622  0.01155939
   0.89092245  6.40754561  0.00907111
   0.89106251  7.83067670  0.01235474
   4.58870974  4.27292622  0.00849795
   4.58852320  5.69606300  0.01149026
   9.51844972  0.00336679  0.01490402
   9.51855036  1.42644387  0.01438264
   8.28593477  2.13803408  0.01452582
   8.28612680  3.56114872  0.01463668
   7.05356221  4.27268994  0.01457444
   7.05362213  5.69588251  0.01552751
   5.82112285  6.40754723  0.01489279
   5.82101669  7.83073350  0.01578780
   7.05362858  8.54227219  0.01630582
  -5.27148792  9.96548729  0.01495127
  -2.80637951  8.54234295  0.01558431
  -2.80626749  9.96552896  0.01362126
  -0.34148805  8.54239058  0.01378498
  -0.34137657  9.96550309  0.01353576
   2.12342586  8.54231992  0.01336337
   2.12354296  9.96544135  0.01469111
   4.58845581  8.54235337  0.01505154
   4.58852904  9.96549848  0.01517076
   3.04929830  2.68153618  5.00000000
   4.02070129  2.02068374  5.06442186
   2.07766701  3.34267235  4.94054513
 


--------------------------------------------------------------------------------------------------------


 k-point   1 :   0.0000 0.0000 0.0000  plane waves:  189031

 maximum and minimum number of plane-waves per node :      6755     6748

 maximum number of plane-waves:    189031
 maximum index in each direction: 
   IXMAX=   31   IYMAX=   31   IZMAX=   51
   IXMIN=  -31   IYMIN=  -31   IZMIN=  -51


 parallel 3D FFT for wavefunctions:
    minimum data exchange during FFTs selected (reduces bandwidth)
 parallel 3D FFT for charge:
    minimum data exchange during FFTs selected (reduces bandwidth)


 total amount of memory used by VASP MPI-rank0    85439. kBytes
=======================================================================

   base      :      30000. kBytes
   nonl-proj :       6586. kBytes
   fftplans  :      14299. kBytes
   grid      :      23511. kBytes
   one-center:          6. kBytes
   wavefun   :      11037. kBytes
 
     INWAV:  cpu time    0.0000: real time    0.0000
 Broyden mixing: mesh for mixing (old mesh)
   NGX = 63   NGY = 63   NGZ =103
  (NGX  =256   NGY  =256   NGZ  =420)
  gives a total of 408807 points

 initial charge density was supplied:
 charge density of overlapping atoms calculated
 number of electron     216.0000000 magnetization 
 keeping initial charge density in first step


--------------------------------------------------------------------------------------------------------


 Maximum index for augmentation-charges          459 (set IRDMAX)


--------------------------------------------------------------------------------------------------------


 First call to EWALD:  gamma=   0.128
 Maximum number of real-space cells 3x 3x 2
 Maximum number of reciprocal cells 3x 3x 4

    FEWALD:  cpu time    0.0022: real time    0.0022


--------------------------------------- Iteration      1(   1)  ---------------------------------------


vdW kernel read from vdw_kernel.bindat
  0.0000  0.2424  0.5071  0.7962  1.1119  1.4567  1.8333  2.2446  2.6937  3.1842
  3.7199  4.3049  4.9438  5.6415  6.4036  7.2358  8.1446  9.1372 10.2212 11.4050
 12.6979 14.1099 15.6519 17.3360 19.1751 21.1837 23.3773 25.7729 28.3892 31.2465
 34.3669 37.7748 41.4965 45.5611 50.0000
 
    POTLOK:  cpu time    3.3809: real time    3.4307
    SETDIJ:  cpu time    0.0555: real time    0.0557
    TRIAL :  cpu time    1.5052: real time    1.5240
    CORREC:  cpu time    0.0006: real time    0.0008
    --------------------------------------------
      LOOP:  cpu time    4.9443: real time    5.0339

 eigenvalue-minimisations  :   272
 total energy-change (2. order) : 0.2771273E+04  (-0.1099511E+05)
 number of electron     216.0000000 magnetization 
 augmentation part      216.0000000 magnetization 

 Free energy of the ion-electron system (eV)
  ---------------------------------------------------
  alpha Z        PSCENC =        59.93625244
  Ewald energy   TEWEN  =     31970.79253318
  -Hartree energ DENC   =    -38146.23045881
  -exchange      EXHF   =         0.00000000
  -V(xc)+E(xc)   XCENC  =       412.33249043
  PAW double counting   =      6548.36373666    -6261.59511771
  entropy T*S    EENTRO =        -0.00000000
  eigenvalues    EBANDS =      -233.27241761
  atomic energy  EATOM  =      8420.94593319
  ---------------------------------------------------
  free energy    TOTEN  =      2771.27295178 eV

  energy without entropy =     2771.27295178  energy(sigma->0) =     2771.27295178


--------------------------------------------------------------------------------------------------------




--------------------------------------- Iteration      1(   2)  ---------------------------------------


    TRIAL :  cpu time    2.1085: real time    2.1274
    CORREC:  cpu time    0.0000: real time    0.0000
    --------------------------------------------
      LOOP:  cpu time    2.1809: real time    2.2022

 eigenvalue-minimisations  :   432
 total energy-change (2. order) :-0.2415187E+04  (-0.2257701E+04)
 number of electron     216.0000000 magnetization 
 augmentation part      216.0000000 magnetization 

 Free energy of the ion-electron system (eV)
  ---------------------------------------------------
  alpha Z        PSCENC =        59.93625244
  Ewald energy   TEWEN  =     31970.79253318
  -Hartree energ DENC   =    -38146.23045881
  -exchange      EXHF   =         0.00000000
  -V(xc)+E(xc)   XCENC  =       412.33249043
  PAW double counting   =      6548.36373666    -6261.59511771
  entropy T*S    EENTRO =        -0.00000000
  eigenvalues    EBANDS =     -2648.45946365
  atomic energy  EATOM  =      8420.94593319
  ---------------------------------------------------
  free energy    TOTEN  =       356.08590573 eV

  energy without entropy =      356.08590573  energy(sigma->0) =      356.08590573


--------------------------------------------------------------------------------------------------------




--------------------------------------- Iteration      1(   3)  ---------------------------------------


    TRIAL :  cpu time    1.8104: real time    1.8272
    CORREC:  cpu time    0.0001: real time    0.0003
    --------------------------------------------
      LOOP:  cpu time    1.8436: real time    1.8617

 eigenvalue-minimisations  :   360
 total energy-change (2. order) :-0.7569554E+03  (-0.7492664E+03)
 number of electron     216.0000000 magnetization 
 augmentation part      216.0000000 magnetization 

 Free energy of the ion-electron system (eV)
  ---------------------------------------------------
  alpha Z        PSCENC =        59.93625244
  Ewald energy   TEWEN  =     31970.79253318
  -Hartree energ DENC   =    -38146.23045881
  -exchange      EXHF   =         0.00000000
  -V(xc)+E(xc)   XCENC  =       412.33249043
  PAW double counting   =      6548.36373666    -6261.59511771
  entropy T*S    EENTRO =        -0.00000000
  eigenvalues    EBANDS =     -3405.41485982
  atomic energy  EATOM  =      8420.94593319
  ---------------------------------------------------
  free energy    TOTEN  =      -400.86949044 eV

  energy without entropy =     -400.86949044  energy(sigma->0) =     -400.86949044


--------------------------------------------------------------------------------------------------------




--------------------------------------- Iteration      1(   4)  ---------------------------------------


    TRIAL :  cpu time    1.7185: real time    1.7352
    CORREC:  cpu time    0.0001: real time    0.0001
    --------------------------------------------
      LOOP:  cpu time    1.7369: real time    1.7624

 eigenvalue-minimisations  :   336
 total energy-change (2. order) :-0.5778596E+02  (-0.5715746E+02)
 number of electron     216.0000000 magnetization 
 augmentation part      216.0000000 magnetization 

 Free energy of the ion-electron system (eV)
  ---------------------------------------------------
  alpha Z        PSCENC =        59.93625244
  Ewald energy   TEWEN  =     31970.79253318
  -Hartree energ DENC   =    -38146.23045881
  -exchange      EXHF   =         0.00000000
  -V(xc)+E(xc)   XCENC  =       412.33249043
  PAW double counting   =      6548.36373666    -6261.59511771
  entropy T*S    EENTRO =        -0.00000000
  eigenvalues    EBANDS =     -3463.20081588
  atomic energy  EATOM  =      8420.94593319
  ---------------------------------------------------
  free energy    TOTEN  =      -458.65544650 eV

  energy without entropy =     -458.65544650  energy(sigma->0) =     -458.65544650


--------------------------------------------------------------------------------------------------------




--------------------------------------- Iteration      1(   5)  ---------------------------------------


    TRIAL :  cpu time    1.8977: real time    1.9178
    CORREC:  cpu time    0.0001: real time    0.0001
    CHARGE:  cpu time    0.1183: real time    0.1202
    --------------------------------------------
      LOOP:  cpu time    2.0745: real time    2.0975

 eigenvalue-minimisations  :   384
 total energy-change (2. order) :-0.1708045E+01  (-0.1701254E+01)
 number of electron     216.0000000 magnetization 
 augmentation part       -0.2267767 magnetization 

 Free energy of the ion-electron system (eV)
  ---------------------------------------------------
  alpha Z        PSCENC =        59.93625244
  Ewald energy   TEWEN  =     31970.79253318
  -Hartree energ DENC   =    -38146.23045881
  -exchange      EXHF   =         0.00000000
  -V(xc)+E(xc)   XCENC  =       412.33249043
  PAW double counting   =      6548.36373666    -6261.59511771
  entropy T*S    EENTRO =        -0.00000000
  eigenvalues    EBANDS =     -3464.90886084
  atomic energy  EATOM  =      8420.94593319
  ---------------------------------------------------
  free energy    TOTEN  =      -460.36349146 eV

  energy without entropy =     -460.36349146  energy(sigma->0) =     -460.36349146


--------------------------------------------------------------------------------------------------------




--------------------------------------- Iteration      1(   6)  ---------------------------------------


    POTLOK:  cpu time    3.0742: real time    3.0980
    SETDIJ:  cpu time    0.0542: real time    0.0544
    TRIAL :  cpu time    0.8583: real time    0.8672
    CORREC:  cpu time    3.4170: real time    3.4450
    CHARGE:  cpu time    0.1159: real time    0.1171
    --------------------------------------------
      LOOP:  cpu time    7.6022: real time    7.6664

 eigenvalue-minimisations  :     0
 total energy-change (2. order) : 0.5257484E+02  (-0.1665167E+02)
 number of electron     216.0000000 magnetization 
 augmentation part       -0.3280386 magnetization 

 Free energy of the ion-electron system (eV)
  ---------------------------------------------------
  alpha Z        PSCENC =        59.93625244
  Ewald energy   TEWEN  =     31970.79253318
  -Hartree energ DENC   =    -39559.59280366
  -exchange      EXHF   =         0.00000000
  -V(xc)+E(xc)   XCENC  =       460.14310428
  PAW double counting   =     80371.32127110   -80090.98566001
  entropy T*S    EENTRO =        -0.00000000
  eigenvalues    EBANDS =     -2040.34927818
  atomic energy  EATOM  =      8420.94593319
  ---------------------------------------------------
  free energy    TOTEN  =      -407.78864766 eV

  energy without entropy =     -407.78864766  energy(sigma->0) =     -407.78864766


--------------------------------------------------------------------------------------------------------




--------------------------------------- Iteration      1(   7)  ---------------------------------------


    POTLOK:  cpu time    3.0776: real time    3.1057
    SETDIJ:  cpu time    0.0640: real time    0.0642
    TRIAL :  cpu time    0.8573: real time    0.8652
    CORREC:  cpu time    3.4348: real time    3.4642
    CHARGE:  cpu time    0.1161: real time    0.1173
    --------------------------------------------
      LOOP:  cpu time    7.5738: real time    7.6704

 eigenvalue-minimisations  :     0
 total energy-change (2. order) :-0.1670581E+02  (-0.1832485E+01)
 number of electron     216.0000000 magnetization 
 augmentation part       -0.3735180 magnetization 

 Free energy of the ion-electron system (eV)
  ---------------------------------------------------
  alpha Z        PSCENC =        59.93625244
  Ewald energy   TEWEN  =     31970.79253318
  -Hartree energ DENC   =    -39040.66831898
  -exchange      EXHF   =         0.00000000
  -V(xc)+E(xc)   XCENC  =       442.52111374
  PAW double counting   =     95416.91900053   -95133.81838963
  entropy T*S    EENTRO =        -0.00000000
  eigenvalues    EBANDS =     -2561.12257730
  atomic energy  EATOM  =      8420.94593319
  ---------------------------------------------------
  free energy    TOTEN  =      -424.49445283 eV

  energy without entropy =     -424.49445283  energy(sigma->0) =     -424.49445283


--------------------------------------------------------------------------------------------------------




--------------------------------------- Iteration      1(   8)  ---------------------------------------


    POTLOK:  cpu time    3.0812: real time    3.1063
    SETDIJ:  cpu time    0.0633: real time    0.0635
    TRIAL :  cpu time    0.8557: real time    0.8666
    CORREC:  cpu time    3.4276: real time    3.4565
    CHARGE:  cpu time    0.1172: real time    0.1184
    --------------------------------------------
      LOOP:  cpu time    7.5740: real time    7.6429

 eigenvalue-minimisations  :     0
 total energy-change (2. order) :-0.1830872E+01  (-0.4792409E+00)
 number of electron     216.0000000 magnetization 
 augmentation part       -0.3913036 magnetization 

 Free energy of the ion-electron system (eV)
  ---------------------------------------------------
  alpha Z        PSCENC =        59.93625244
  Ewald energy   TEWEN  =     31970.79253318
  -Hartree energ DENC   =    -39013.47887987
  -exchange      EXHF   =         0.00000000
  -V(xc)+E(xc)   XCENC  =       442.05400147
  PAW double counting   =     99358.14863164   -99074.72133310
  entropy T*S    EENTRO =        -0.00000000
  eigenvalues    EBANDS =     -2590.00246331
  atomic energy  EATOM  =      8420.94593319
  ---------------------------------------------------
  free energy    TOTEN  =      -426.32532437 eV

  energy without entropy =     -426.32532437  energy(sigma->0) =     -426.32532437


--------------------------------------------------------------------------------------------------------




--------------------------------------- Iteration      1(   9)  ---------------------------------------


    POTLOK:  cpu time    3.0734: real time    3.0983
    SETDIJ:  cpu time    0.0633: real time    0.0636
    TRIAL :  cpu time    0.8547: real time    0.8634
    CORREC:  cpu time    3.4207: real time    3.4523
    CHARGE:  cpu time    0.1155: real time    0.1167
    --------------------------------------------
      LOOP:  cpu time    7.5650: real time    7.6390

 eigenvalue-minimisations  :     0
 total energy-change (2. order) :-0.4791891E+00  (-0.1611532E+00)
 number of electron     216.0000000 magnetization 
 augmentation part       -0.3998486 magnetization 

 Free energy of the ion-electron system (eV)
  ---------------------------------------------------
  alpha Z        PSCENC =        59.93625244
  Ewald energy   TEWEN  =     31970.79253318
  -Hartree energ DENC   =    -39028.79103150
  -exchange      EXHF   =         0.00000000
  -V(xc)+E(xc)   XCENC  =       442.27592062
  PAW double counting   =    102073.87615273  -101790.30957704
  entropy T*S    EENTRO =        -0.00000000
  eigenvalues    EBANDS =     -2575.53069708
  atomic energy  EATOM  =      8420.94593319
  ---------------------------------------------------
  free energy    TOTEN  =      -426.80451346 eV

  energy without entropy =     -426.80451346  energy(sigma->0) =     -426.80451346


--------------------------------------------------------------------------------------------------------




--------------------------------------- Iteration      1(  10)  ---------------------------------------


    POTLOK:  cpu time    3.0569: real time    3.0825
    SETDIJ:  cpu time    0.0650: real time    0.0653
    TRIAL :  cpu time    0.8574: real time    0.8660
    CORREC:  cpu time    3.4278: real time    3.4568
    CHARGE:  cpu time    0.1167: real time    0.1179
    --------------------------------------------
      LOOP:  cpu time    7.5941: real time    7.6603

 eigenvalue-minimisations  :     0
 total energy-change (2. order) :-0.1608250E+00  (-0.6905986E-01)
 number of electron     216.0000000 magnetization 
 augmentation part       -0.4007898 magnetization 

 Free energy of the ion-electron system (eV)
  ---------------------------------------------------
  alpha Z        PSCENC =        59.93625244
  Ewald energy   TEWEN  =     31970.79253318
  -Hartree energ DENC   =    -39027.89330165
  -exchange      EXHF   =         0.00000000
  -V(xc)+E(xc)   XCENC  =       442.16747210
  PAW double counting   =    102687.45116457  -102403.79769544
  entropy T*S    EENTRO =        -0.00000000
  eigenvalues    EBANDS =     -2576.56769681
  atomic energy  EATOM  =      8420.94593319
  ---------------------------------------------------
  free energy    TOTEN  =      -426.96533843 eV

  energy without entropy =     -426.96533843  energy(sigma->0) =     -426.96533843


--------------------------------------------------------------------------------------------------------




--------------------------------------- Iteration      1(  11)  ---------------------------------------


    POTLOK:  cpu time    3.0572: real time    3.0847
    SETDIJ:  cpu time    0.0631: real time    0.0633
    TRIAL :  cpu time    0.8574: real time    0.8662
    CORREC:  cpu time    3.4395: real time    3.4672
    CHARGE:  cpu time    0.1159: real time    0.1173
    --------------------------------------------
      LOOP:  cpu time    7.5950: real time    7.6636

 eigenvalue-minimisations  :     0
 total energy-change (2. order) :-0.6883020E-01  (-0.2924415E-01)
 number of electron     216.0000000 magnetization 
 augmentation part       -0.4005366 magnetization 

 Free energy of the ion-electron system (eV)
  ---------------------------------------------------
  alpha Z        PSCENC =        59.93625244
  Ewald energy   TEWEN  =     31970.79253318
  -Hartree energ DENC   =    -39022.79580545
  -exchange      EXHF   =         0.00000000
  -V(xc)+E(xc)   XCENC  =       442.09497042
  PAW double counting   =    102359.63894522  -102075.98579748
  entropy T*S    EENTRO =        -0.00000000
  eigenvalues    EBANDS =     -2581.66120015
  atomic energy  EATOM  =      8420.94593319
  ---------------------------------------------------
  free energy    TOTEN  =      -427.03416863 eV

  energy without entropy =     -427.03416863  energy(sigma->0) =     -427.03416863


--------------------------------------------------------------------------------------------------------




--------------------------------------- Iteration      1(  12)  ---------------------------------------


    POTLOK:  cpu time    3.0646: real time    3.0919
    SETDIJ:  cpu time    0.0629: real time    0.0631
    TRIAL :  cpu time    0.8561: real time    0.8644
    CORREC:  cpu time    3.4370: real time    3.4656
    CHARGE:  cpu time    0.1161: real time    0.1172
    --------------------------------------------
      LOOP:  cpu time    7.6149: real time    7.6809

 eigenvalue-minimisations  :     0
 total energy-change (2. order) :-0.2911175E-01  (-0.9720322E-02)
 number of electron     216.0000000 magnetization 
 augmentation part       -0.4005978 magnetization 

 Free energy of the ion-electron system (eV)
  ---------------------------------------------------
  alpha Z        PSCENC =        59.93625244
  Ewald energy   TEWEN  =     31970.79253318
  -Hartree energ DENC   =    -39020.57555492
  -exchange      EXHF   =         0.00000000
  -V(xc)+E(xc)   XCENC  =       442.04367446
  PAW double counting   =    102035.31173946  -101751.67939305
  entropy T*S    EENTRO =        -0.00000000
  eigenvalues    EBANDS =     -2583.83846514
  atomic energy  EATOM  =      8420.94593319
  ---------------------------------------------------
  free energy    TOTEN  =      -427.06328038 eV

  energy without entropy =     -427.06328038  energy(sigma->0) =     -427.06328038


--------------------------------------------------------------------------------------------------------




--------------------------------------- Iteration      1(  13)  ---------------------------------------


    POTLOK:  cpu time    3.0717: real time    3.0961
    SETDIJ:  cpu time    0.0626: real time    0.0628
    TRIAL :  cpu time    0.8553: real time    0.8636
    CORREC:  cpu time    3.4451: real time    3.4767
    CHARGE:  cpu time    0.1154: real time    0.1167
    --------------------------------------------
      LOOP:  cpu time    7.5660: real time    7.6618

 eigenvalue-minimisations  :     0
 total energy-change (2. order) :-0.9705300E-02  (-0.2813542E-02)
 number of electron     216.0000000 magnetization 
 augmentation part       -0.4001126 magnetization 

 Free energy of the ion-electron system (eV)
  ---------------------------------------------------
  alpha Z        PSCENC =        59.93625244
  Ewald energy   TEWEN  =     31970.79253318
  -Hartree energ DENC   =    -39020.55555947
  -exchange      EXHF   =         0.00000000
  -V(xc)+E(xc)   XCENC  =       442.03266503
  PAW double counting   =    101902.30968440  -101618.68872634
  entropy T*S    EENTRO =        -0.00000000
  eigenvalues    EBANDS =     -2583.84576811
  atomic energy  EATOM  =      8420.94593319
  ---------------------------------------------------
  free energy    TOTEN  =      -427.07298568 eV

  energy without entropy =     -427.07298568  energy(sigma->0) =     -427.07298568


--------------------------------------------------------------------------------------------------------




--------------------------------------- Iteration      1(  14)  ---------------------------------------


    POTLOK:  cpu time    3.0678: real time    3.0915
    SETDIJ:  cpu time    0.0643: real time    0.0645
    TRIAL :  cpu time    0.8807: real time    0.8897
    CORREC:  cpu time    3.4157: real time    3.4556
    CHARGE:  cpu time    0.1163: real time    0.1174
    --------------------------------------------
      LOOP:  cpu time    7.5772: real time    7.6516

 eigenvalue-minimisations  :     0
 total energy-change (2. order) :-0.2815757E-02  (-0.9303580E-03)
 number of electron     216.0000000 magnetization 
 augmentation part       -0.3999180 magnetization 

 Free energy of the ion-electron system (eV)
  ---------------------------------------------------
  alpha Z        PSCENC =        59.93625244
  Ewald energy   TEWEN  =     31970.79253318
  -Hartree energ DENC   =    -39020.53383891
  -exchange      EXHF   =         0.00000000
  -V(xc)+E(xc)   XCENC  =       442.03080514
  PAW double counting   =    101905.10211431  -101621.48561564
  entropy T*S    EENTRO =        -0.00000000
  eigenvalues    EBANDS =     -2583.86398515
  atomic energy  EATOM  =      8420.94593319
  ---------------------------------------------------
  free energy    TOTEN  =      -427.07580144 eV

  energy without entropy =     -427.07580144  energy(sigma->0) =     -427.07580144


--------------------------------------------------------------------------------------------------------




--------------------------------------- Iteration      1(  15)  ---------------------------------------


    POTLOK:  cpu time    3.0700: real time    3.0949
    SETDIJ:  cpu time    0.0629: real time    0.0631
    TRIAL :  cpu time    0.8596: real time    0.8676
    CORREC:  cpu time    3.4271: real time    3.4558
    CHARGE:  cpu time    0.1150: real time    0.1163
    --------------------------------------------
      LOOP:  cpu time    7.6310: real time    7.6991

 eigenvalue-minimisations  :     0
 total energy-change (2. order) :-0.9324457E-03  (-0.4244391E-03)
 number of electron     216.0000000 magnetization 
 augmentation part       -0.3995668 magnetization 

 Free energy of the ion-electron system (eV)
  ---------------------------------------------------
  alpha Z        PSCENC =        59.93625244
  Ewald energy   TEWEN  =     31970.79253318
  -Hartree energ DENC   =    -39020.15185276
  -exchange      EXHF   =         0.00000000
  -V(xc)+E(xc)   XCENC  =       442.01257625
  PAW double counting   =    101916.01171086  -101632.39346501
  entropy T*S    EENTRO =        -0.00000000
  eigenvalues    EBANDS =     -2584.23042204
  atomic energy  EATOM  =      8420.94593319
  ---------------------------------------------------
  free energy    TOTEN  =      -427.07673389 eV

  energy without entropy =     -427.07673389  energy(sigma->0) =     -427.07673389


--------------------------------------------------------------------------------------------------------




--------------------------------------- Iteration      1(  16)  ---------------------------------------


    POTLOK:  cpu time    3.0584: real time    3.0901
    SETDIJ:  cpu time    0.0628: real time    0.0630
    TRIAL :  cpu time    0.8558: real time    0.8646
    CORREC:  cpu time    3.4203: real time    3.4490
    CHARGE:  cpu time    0.1168: real time    0.1181
    --------------------------------------------
      LOOP:  cpu time    7.5403: real time    7.6491

 eigenvalue-minimisations  :     0
 total energy-change (2. order) :-0.4256304E-03  (-0.1993297E-03)
 number of electron     216.0000000 magnetization 
 augmentation part       -0.3994353 magnetization 

 Free energy of the ion-electron system (eV)
  ---------------------------------------------------
  alpha Z        PSCENC =        59.93625244
  Ewald energy   TEWEN  =     31970.79253318
  -Hartree energ DENC   =    -39020.38775077
  -exchange      EXHF   =         0.00000000
  -V(xc)+E(xc)   XCENC  =       442.02250707
  PAW double counting   =    101881.14487320  -101597.52822086
  entropy T*S    EENTRO =        -0.00000000
  eigenvalues    EBANDS =     -2584.00328697
  atomic energy  EATOM  =      8420.94593319
  ---------------------------------------------------
  free energy    TOTEN  =      -427.07715952 eV

  energy without entropy =     -427.07715952  energy(sigma->0) =     -427.07715952


--------------------------------------------------------------------------------------------------------




--------------------------------------- Iteration      1(  17)  ---------------------------------------


    POTLOK:  cpu time    3.0606: real time    3.0844
    SETDIJ:  cpu time    0.0632: real time    0.0634
    TRIAL :  cpu time    0.8570: real time    0.8656
    CORREC:  cpu time    3.4188: real time    3.4507
    CHARGE:  cpu time    0.1164: real time    0.1175
    --------------------------------------------
      LOOP:  cpu time    7.5867: real time    7.6539

 eigenvalue-minimisations  :     0
 total energy-change (2. order) :-0.1996418E-03  (-0.8879417E-04)
 number of electron     216.0000000 magnetization 
 augmentation part       -0.3994738 magnetization 

 Free energy of the ion-electron system (eV)
  ---------------------------------------------------
  alpha Z        PSCENC =        59.93625244
  Ewald energy   TEWEN  =     31970.79253318
  -Hartree energ DENC   =    -39020.48858389
  -exchange      EXHF   =         0.00000000
  -V(xc)+E(xc)   XCENC  =       442.02502642
  PAW double counting   =    101841.85053797  -101558.23361346
  entropy T*S    EENTRO =        -0.00000000
  eigenvalues    EBANDS =     -2583.90544501
  atomic energy  EATOM  =      8420.94593319
  ---------------------------------------------------
  free energy    TOTEN  =      -427.07735916 eV

  energy without entropy =     -427.07735916  energy(sigma->0) =     -427.07735916


--------------------------------------------------------------------------------------------------------




--------------------------------------- Iteration      1(  18)  ---------------------------------------


    POTLOK:  cpu time    3.0649: real time    3.0895
    SETDIJ:  cpu time    0.0640: real time    0.0643
    TRIAL :  cpu time    0.8566: real time    0.8652
    CORREC:  cpu time    3.4193: real time    3.4505
    CHARGE:  cpu time    0.1171: real time    0.1183
    --------------------------------------------
      LOOP:  cpu time    7.5976: real time    7.6666

 eigenvalue-minimisations  :     0
 total energy-change (2. order) :-0.8858518E-04  (-0.3339185E-04)
 number of electron     216.0000000 magnetization 
 augmentation part       -0.3995930 magnetization 

 Free energy of the ion-electron system (eV)
  ---------------------------------------------------
  alpha Z        PSCENC =        59.93625244
  Ewald energy   TEWEN  =     31970.79253318
  -Hartree energ DENC   =    -39020.52930670
  -exchange      EXHF   =         0.00000000
  -V(xc)+E(xc)   XCENC  =       442.02642100
  PAW double counting   =    101832.36165616  -101548.74414944
  entropy T*S    EENTRO =        -0.00000000
  eigenvalues    EBANDS =     -2583.86678757
  atomic energy  EATOM  =      8420.94593319
  ---------------------------------------------------
  free energy    TOTEN  =      -427.07744774 eV

  energy without entropy =     -427.07744774  energy(sigma->0) =     -427.07744774


--------------------------------------------------------------------------------------------------------




--------------------------------------- Iteration      1(  19)  ---------------------------------------


    POTLOK:  cpu time    3.0643: real time    3.0889
    SETDIJ:  cpu time    0.0646: real time    0.0648
    TRIAL :  cpu time    0.8585: real time    0.8670
    CORREC:  cpu time    3.4507: real time    3.4819
    CHARGE:  cpu time    0.1168: real time    0.1180
    --------------------------------------------
      LOOP:  cpu time    7.5669: real time    7.6672

 eigenvalue-minimisations  :     0
 total energy-change (2. order) :-0.3306448E-04  (-0.1307082E-04)
 number of electron     216.0000000 magnetization 
 augmentation part       -0.3996610 magnetization 

 Free energy of the ion-electron system (eV)
  ---------------------------------------------------
  alpha Z        PSCENC =        59.93625244
  Ewald energy   TEWEN  =     31970.79253318
  -Hartree energ DENC   =    -39020.53898159
  -exchange      EXHF   =         0.00000000
  -V(xc)+E(xc)   XCENC  =       442.02646933
  PAW double counting   =    101843.29140233  -101559.67334928
  entropy T*S    EENTRO =        -0.00000000
  eigenvalues    EBANDS =     -2583.85774041
  atomic energy  EATOM  =      8420.94593319
  ---------------------------------------------------
  free energy    TOTEN  =      -427.07748081 eV

  energy without entropy =     -427.07748081  energy(sigma->0) =     -427.07748081


--------------------------------------------------------------------------------------------------------




--------------------------------------- Iteration      1(  20)  ---------------------------------------


    POTLOK:  cpu time    3.0532: real time    3.0809
    SETDIJ:  cpu time    0.0633: real time    0.0636
    TRIAL :  cpu time    0.8524: real time    0.8654
    CORREC:  cpu time    3.4277: real time    3.4626
    CHARGE:  cpu time    0.1167: real time    0.1179
    --------------------------------------------
      LOOP:  cpu time    7.6143: real time    7.6935

 eigenvalue-minimisations  :     0
 total energy-change (2. order) :-0.1282558E-04  (-0.5291494E-05)
 number of electron     216.0000000 magnetization 
 augmentation part       -0.3996750 magnetization 

 Free energy of the ion-electron system (eV)
  ---------------------------------------------------
  alpha Z        PSCENC =        59.93625244
  Ewald energy   TEWEN  =     31970.79253318
  -Hartree energ DENC   =    -39020.54961265
  -exchange      EXHF   =         0.00000000
  -V(xc)+E(xc)   XCENC  =       442.02672937
  PAW double counting   =    101852.96046925  -101569.34233071
  entropy T*S    EENTRO =        -0.00000000
  eigenvalues    EBANDS =     -2583.84746769
  atomic energy  EATOM  =      8420.94593319
  ---------------------------------------------------
  free energy    TOTEN  =      -427.07749363 eV

  energy without entropy =     -427.07749363  energy(sigma->0) =     -427.07749363


--------------------------------------------------------------------------------------------------------




--------------------------------------- Iteration      1(  21)  ---------------------------------------


    POTLOK:  cpu time    3.0632: real time    3.0894
    SETDIJ:  cpu time    0.0648: real time    0.0650
    TRIAL :  cpu time    0.8587: real time    0.8701
    CORREC:  cpu time    3.4330: real time    3.4635
    CHARGE:  cpu time    0.1165: real time    0.1177
    --------------------------------------------
      LOOP:  cpu time    7.5961: real time    7.6913

 eigenvalue-minimisations  :     0
 total energy-change (2. order) :-0.5178037E-05  (-0.2390344E-05)
 number of electron     216.0000000 magnetization 
 augmentation part       -0.3996644 magnetization 

 Free energy of the ion-electron system (eV)
  ---------------------------------------------------
  alpha Z        PSCENC =        59.93625244
  Ewald energy   TEWEN  =     31970.79253318
  -Hartree energ DENC   =    -39020.54335563
  -exchange      EXHF   =         0.00000000
  -V(xc)+E(xc)   XCENC  =       442.02637988
  PAW double counting   =    101855.27948058  -101571.66143328
  entropy T*S    EENTRO =        -0.00000000
  eigenvalues    EBANDS =     -2583.85328919
  atomic energy  EATOM  =      8420.94593319
  ---------------------------------------------------
  free energy    TOTEN  =      -427.07749881 eV

  energy without entropy =     -427.07749881  energy(sigma->0) =     -427.07749881


--------------------------------------------------------------------------------------------------------




--------------------------------------- Iteration      1(  22)  ---------------------------------------


    POTLOK:  cpu time    3.0745: real time    3.0993
    SETDIJ:  cpu time    0.0633: real time    0.0635
    TRIAL :  cpu time    0.8572: real time    0.8660
    CORREC:  cpu time    3.4202: real time    3.4512
    CHARGE:  cpu time    0.1148: real time    0.1160
    --------------------------------------------
      LOOP:  cpu time    7.5660: real time    7.6504

 eigenvalue-minimisations  :     0
 total energy-change (2. order) :-0.2359244E-05  (-0.9776576E-06)
 number of electron     216.0000000 magnetization 
 augmentation part       -0.3996542 magnetization 

 Free energy of the ion-electron system (eV)
  ---------------------------------------------------
  alpha Z        PSCENC =        59.93625244
  Ewald energy   TEWEN  =     31970.79253318
  -Hartree energ DENC   =    -39020.54005186
  -exchange      EXHF   =         0.00000000
  -V(xc)+E(xc)   XCENC  =       442.02621072
  PAW double counting   =    101854.14923496  -101570.53131006
  entropy T*S    EENTRO =        -0.00000000
  eigenvalues    EBANDS =     -2583.85630374
  atomic energy  EATOM  =      8420.94593319
  ---------------------------------------------------
  free energy    TOTEN  =      -427.07750117 eV

  energy without entropy =     -427.07750117  energy(sigma->0) =     -427.07750117


--------------------------------------------------------------------------------------------------------




--------------------------------------- Iteration      1(  23)  ---------------------------------------


    POTLOK:  cpu time    3.0761: real time    3.1007
    SETDIJ:  cpu time    0.0639: real time    0.0641
    TRIAL :  cpu time    0.8669: real time    0.8757
    CORREC:  cpu time    3.4379: real time    3.4671
    CHARGE:  cpu time    0.1168: real time    0.1181
    --------------------------------------------
      LOOP:  cpu time    7.6356: real time    7.7025

 eigenvalue-minimisations  :     0
 total energy-change (2. order) :-0.9842915E-06  (-0.4285169E-06)
 number of electron     216.0000000 magnetization 
 augmentation part       -0.3996501 magnetization 

 Free energy of the ion-electron system (eV)
  ---------------------------------------------------
  alpha Z        PSCENC =        59.93625244
  Ewald energy   TEWEN  =     31970.79253318
  -Hartree energ DENC   =    -39020.53614236
  -exchange      EXHF   =         0.00000000
  -V(xc)+E(xc)   XCENC  =       442.02614481
  PAW double counting   =    101853.02329119  -101569.40541278
  entropy T*S    EENTRO =        -0.00000000
  eigenvalues    EBANDS =     -2583.86010183
  atomic energy  EATOM  =      8420.94593319
  ---------------------------------------------------
  free energy    TOTEN  =      -427.07750216 eV

  energy without entropy =     -427.07750216  energy(sigma->0) =     -427.07750216


--------------------------------------------------------------------------------------------------------




--------------------------------------- Iteration      1(  24)  ---------------------------------------


    POTLOK:  cpu time    3.0843: real time    3.1115
    SETDIJ:  cpu time    0.0625: real time    0.0627
    TRIAL :  cpu time    0.8594: real time    0.8680
    CORREC:  cpu time    3.4248: real time    3.4534
    CHARGE:  cpu time    0.1157: real time    0.1169
    --------------------------------------------
      LOOP:  cpu time    7.6146: real time    7.7042

 eigenvalue-minimisations  :     0
 total energy-change (2. order) :-0.4363974E-06  (-0.1875791E-06)
 number of electron     216.0000000 magnetization 
 augmentation part       -0.3996498 magnetization 

 Free energy of the ion-electron system (eV)
  ---------------------------------------------------
  alpha Z        PSCENC =        59.93625244
  Ewald energy   TEWEN  =     31970.79253318
  -Hartree energ DENC   =    -39020.53176436
  -exchange      EXHF   =         0.00000000
  -V(xc)+E(xc)   XCENC  =       442.02609874
  PAW double counting   =    101852.47792359  -101568.86003710
  entropy T*S    EENTRO =        -0.00000000
  eigenvalues    EBANDS =     -2583.86444227
  atomic energy  EATOM  =      8420.94593319
  ---------------------------------------------------
  free energy    TOTEN  =      -427.07750259 eV

  energy without entropy =     -427.07750259  energy(sigma->0) =     -427.07750259


--------------------------------------------------------------------------------------------------------




--------------------------------------- Iteration      1(  25)  ---------------------------------------


    POTLOK:  cpu time    3.0933: real time    3.1163
    SETDIJ:  cpu time    0.0636: real time    0.0638
    TRIAL :  cpu time    0.8570: real time    0.8677
    CORREC:  cpu time    3.4253: real time    3.4528
    CHARGE:  cpu time    0.1155: real time    0.1168
    --------------------------------------------
      LOOP:  cpu time    7.6131: real time    7.6797

 eigenvalue-minimisations  :     0
 total energy-change (2. order) :-0.1910230E-06  (-0.8139483E-07)
 number of electron     216.0000000 magnetization 
 augmentation part       -0.3996498 magnetization 

 Free energy of the ion-electron system (eV)
  ---------------------------------------------------
  alpha Z        PSCENC =        59.93625244
  Ewald energy   TEWEN  =     31970.79253318
  -Hartree energ DENC   =    -39020.53055590
  -exchange      EXHF   =         0.00000000
  -V(xc)+E(xc)   XCENC  =       442.02609153
  PAW double counting   =    101852.21581184  -101568.59790413
  entropy T*S    EENTRO =        -0.00000000
  eigenvalues    EBANDS =     -2583.86566493
  atomic energy  EATOM  =      8420.94593319
  ---------------------------------------------------
  free energy    TOTEN  =      -427.07750278 eV

  energy without entropy =     -427.07750278  energy(sigma->0) =     -427.07750278


--------------------------------------------------------------------------------------------------------




--------------------------------------- Iteration      1(  26)  ---------------------------------------


    POTLOK:  cpu time    3.0650: real time    3.0896
    SETDIJ:  cpu time    0.0631: real time    0.0633
    TRIAL :  cpu time    0.8596: real time    0.8681
    CORREC:  cpu time    3.4389: real time    3.4714
    EDDIAG:  cpu time    0.3252: real time    0.3292
    CHARGE:  cpu time    0.1163: real time    0.1176
    --------------------------------------------
      LOOP:  cpu time    7.9232: real time    7.9948

 eigenvalue-minimisations  :     0
 total energy-change (2. order) :-0.8264033E-07  (-0.3725703E-07)
 number of electron     216.0000000 magnetization 
 augmentation part       -0.3996495 magnetization 

 Free energy of the ion-electron system (eV)
  ---------------------------------------------------
  alpha Z        PSCENC =        59.93625244
  Ewald energy   TEWEN  =     31970.79253318
  -Hartree energ DENC   =    -39020.53137298
  -exchange      EXHF   =         0.00000000
  -V(xc)+E(xc)   XCENC  =       442.02611615
  PAW double counting   =    101852.07504695  -101568.45712965
  entropy T*S    EENTRO =        -0.00000000
  eigenvalues    EBANDS =     -2583.86488214
  atomic energy  EATOM  =      8420.94593319
  ---------------------------------------------------
  free energy    TOTEN  =      -427.07750287 eV

  energy without entropy =     -427.07750287  energy(sigma->0) =     -427.07750287


--------------------------------------------------------------------------------------------------------


  average scaling for gradient   0.8730


 average (electrostatic) potential at core
  the test charge radii are     0.5770  0.5955
  (the norm of the test charge is              1.0000)
       1 -85.6726       2 -85.6713       3 -85.6744       4 -85.6769       5 -85.6693
       6 -85.6684       7 -85.6740       8 -85.6709       9 -85.6709      10 -85.6737
      11 -85.6686      12 -85.6694      13 -85.6734      14 -85.6706      15 -85.6683
      16 -85.6690      17 -85.6702      18 -85.6714      19 -85.6724      20 -85.6704
      21 -85.6682      22 -85.6677      23 -85.6783      24 -85.6779      25 -85.6681
      26 -85.6690      27 -85.6713      28 -85.6737      29 -85.6684      30 -85.6682
      31 -85.6756      32 -85.6734      33 -85.6698      34 -85.6689      35 -85.6688
      36 -85.6696      37 -85.6710      38 -85.6719      39 -85.6721      40 -85.6716
      41 -85.6717      42 -85.6726      43 -85.6703      44 -85.6726      45 -85.6683
      46 -85.6687      47 -85.6693      48 -85.6686      49 -85.6716      50 -85.6705
      51 -89.6031      52-120.1200      53-120.1200
 
 
 
 E-fermi :  -4.0499     XC(G=0):  -2.6857     alpha+bet : -2.1113

 Fermi energy:        -4.0499339808

 k-point     1 :       0.0000    0.0000    0.0000
  band No.  band energies     occupation 
      1     -27.3309      2.00000
      2     -26.3467      2.00000
      3     -22.1022      2.00000
      4     -21.1672      2.00000
      5     -21.1665      2.00000
      6     -21.1660      2.00000
      7     -21.1647      2.00000
      8     -21.1637      2.00000
      9     -21.1636      2.00000
     10     -19.3296      2.00000
     11     -19.3292      2.00000
     12     -19.3290      2.00000
     13     -19.3289      2.00000
     14     -19.3288      2.00000
     15     -19.3287      2.00000
     16     -18.4354      2.00000
     17     -18.4354      2.00000
     18     -18.4351      2.00000
     19     -18.4345      2.00000
     20     -18.4344      2.00000
     21     -18.4342      2.00000
     22     -16.2758      2.00000
     23     -16.2757      2.00000
     24     -16.2749      2.00000
     25     -16.2747      2.00000
     26     -16.2736      2.00000
     27     -16.2734      2.00000
     28     -15.3042      2.00000
     29     -15.3042      2.00000
     30     -15.3039      2.00000
     31     -15.3039      2.00000
     32     -15.3031      2.00000
     33     -15.3030      2.00000
     34     -13.9565      2.00000
     35     -13.9564      2.00000
     36     -13.9559      2.00000
     37     -13.9557      2.00000
     38     -13.9557      2.00000
     39     -13.9553      2.00000
     40     -12.1805      2.00000
     41     -11.5841      2.00000
     42     -11.5839      2.00000
     43     -11.5835      2.00000
     44     -11.5834      2.00000
     45     -11.5826      2.00000
     46     -11.5824      2.00000
     47     -11.4971      2.00000
     48     -11.4971      2.00000
     49     -11.4964      2.00000
     50     -11.4964      2.00000
     51     -11.4954      2.00000
     52     -11.4952      2.00000
     53     -11.0388      2.00000
     54     -10.9763      2.00000
     55     -10.9753      2.00000
     56     -10.2832      2.00000
     57     -10.1299      2.00000
     58     -10.1297      2.00000
     59     -10.1284      2.00000
     60     -10.1280      2.00000
     61     -10.1278      2.00000
     62     -10.1278      2.00000
     63      -9.1695      2.00000
     64      -9.1678      2.00000
     65      -9.1655      2.00000
     66      -9.1646      2.00000
     67      -9.1628      2.00000
     68      -9.1627      2.00000
     69      -8.8707      2.00000
     70      -8.8698      2.00000
     71      -8.8696      2.00000
     72      -8.8690      2.00000
     73      -8.8685      2.00000
     74      -8.8684      2.00000
     75      -8.8056      2.00000
     76      -8.8055      2.00000
     77      -8.8053      2.00000
     78      -8.8052      2.00000
     79      -8.8045      2.00000
     80      -8.8037      2.00000
     81      -7.4405      2.00000
     82      -7.4395      2.00000
     83      -7.2240      2.00000
     84      -7.2229      2.00000
     85      -7.2225      2.00000
     86      -7.2220      2.00000
     87      -7.2205      2.00000
     88      -7.2204      2.00000
     89      -7.0351      2.00000
     90      -7.0350      2.00000
     91      -7.0345      2.00000
     92      -7.0340      2.00000
     93      -7.0337      2.00000
     94      -7.0335      2.00000
     95      -6.1377      2.00000
     96      -6.1365      2.00000
     97      -6.1363      2.00000
     98      -6.1358      2.00000
     99      -6.1354      2.00000
    100      -6.1348      2.00000
    101      -5.7481      2.00000
    102      -5.7459      2.00000
    103      -4.1516      2.00000
    104      -4.1513      2.00000
    105      -4.1512      2.00000
    106      -4.1506      2.00000
    107      -4.1484      2.00000
    108      -4.1482      2.00000
    109      -1.3570      0.00000
    110      -1.3568      0.00000
    111      -1.3549      0.00000
    112      -1.3547      0.00000
    113      -1.3545      0.00000
    114      -1.3543      0.00000
    115       0.0054      0.00000
    116       0.4990      0.00000
    117       0.4998      0.00000
    118       0.5004      0.00000
    119       0.5015      0.00000
    120       0.5017      0.00000
    121       0.5041      0.00000
    122       0.5885      0.00000
    123       1.0288      0.00000
    124       1.0291      0.00000
    125       1.2833      0.00000
    126       1.3969      0.00000
    127       1.4386      0.00000
    128       1.4996      0.00000
    129       1.5078      0.00000
    130       1.5185      0.00000
    131       1.5202      0.00000
    132       1.9146      0.00000
    133       2.2032      0.00000
    134       2.2447      0.00000
    135       2.2478      0.00000
    136       2.2486      0.00000


--------------------------------------------------------------------------------------------------------


 soft charge-density along one line, spin component           1
         0         1         2         3         4         5         6         7         8         9
 total charge-density along one line
 
 pseudopotential strength for first ion, spin component:           1
 12.704  21.377  -0.000   0.000   0.000  -0.000   0.000   0.000
 21.377  35.971  -0.000   0.000   0.000  -0.000   0.000   0.000
 -0.000  -0.000  -3.215  -0.000   0.000  -5.762  -0.000   0.000
  0.000   0.000  -0.000  -3.219  -0.000  -0.000  -5.769  -0.000
  0.000   0.000   0.000  -0.000  -3.215   0.000  -0.000  -5.762
 -0.000  -0.000  -5.762  -0.000   0.000 -10.304  -0.000   0.000
  0.000   0.000  -0.000  -5.769  -0.000  -0.000 -10.317  -0.000
  0.000   0.000   0.000  -0.000  -5.762   0.000  -0.000 -10.304
 total augmentation occupancy for first ion, spin component:           1
  7.415  -2.550  -0.000  -0.002  -0.000   0.000   0.001   0.000
 -2.550   0.916   0.000   0.001  -0.000  -0.000  -0.000   0.000
 -0.000   0.000   6.889  -0.007   0.000  -2.287   0.003  -0.000
 -0.002   0.001  -0.007   2.993  -0.000   0.003  -0.763   0.000
 -0.000  -0.000   0.000  -0.000   6.889  -0.000   0.000  -2.287
  0.000  -0.000  -2.287   0.003  -0.000   0.775  -0.001   0.000
  0.001  -0.000   0.003  -0.763   0.000  -0.001   0.202  -0.000
  0.000   0.000  -0.000   0.000  -2.287   0.000  -0.000   0.775


------------------------ aborting loop because EDIFF is reached ----------------------------------------


    FORLOC:  cpu time    0.0511: real time    0.0516
    FORNL :  cpu time    0.6764: real time    0.6802
    FORCOR:  cpu time    3.1548: real time    3.1808
    OFIELD:  cpu time    0.0014: real time    0.0014

 VOLUME and BASIS-vectors are now :
 -----------------------------------------------------------------------------
  energy-cutoff  :     1000.00
  volume of cell :     2631.08
      direct lattice vectors                 reciprocal lattice vectors
    12.325000000  0.000000000  0.000000000     0.081135903  0.046843835  0.000000000
    -6.162500000 10.673763102  0.000000000     0.000000000  0.093687670  0.000000000
     0.000000000  0.000000000 20.000000000     0.000000000  0.000000000  0.050000000

  length of vectors
    12.325000000 12.325000000 20.000000000     0.093687670  0.093687670  0.050000000


 FORCES acting on ions:
    Electron-Ion                     Ewald-Force                    Non-Local-Force
 -----------------------------------------------------------------------------------------------
   0.444E+01 0.386E+01 0.196E+02   -.445E+01 -.386E+01 -.196E+02   0.861E-02 -.118E-02 0.794E-02
   0.654E+01 0.318E+01 0.231E+02   -.655E+01 -.318E+01 -.231E+02   0.101E-01 -.488E-02 -.535E-02
   0.284E+01 0.757E+01 0.258E+02   -.284E+01 -.759E+01 -.258E+02   -.759E-03 0.195E-01 0.772E-02
   0.381E+01 0.552E+01 0.335E+02   -.382E+01 -.552E+01 -.336E+02   0.183E-01 0.416E-02 0.405E-02
   0.474E+01 0.112E+01 0.198E+02   -.474E+01 -.112E+01 -.198E+02   0.286E-02 -.869E-02 -.227E-03
   0.488E+01 -.945E+00 0.201E+02   -.488E+01 0.949E+00 -.201E+02   -.693E-02 0.167E-02 -.828E-02
   0.716E+01 0.262E+01 0.312E+02   -.717E+01 -.262E+01 -.312E+02   0.218E-01 -.241E-01 0.172E-03
   0.693E+01 -.247E+01 0.325E+02   -.695E+01 0.248E+01 -.325E+02   0.242E-02 -.115E-01 -.808E-02
   -.337E+01 0.683E+01 0.259E+02   0.338E+01 -.684E+01 -.259E+02   -.665E-02 -.672E-02 -.732E-02
   -.517E+01 0.435E+01 0.327E+02   0.518E+01 -.436E+01 -.327E+02   -.368E-01 0.224E-01 0.806E-02
   0.123E+01 -.120E+01 0.173E+02   -.122E+01 0.120E+01 -.173E+02   0.162E-02 -.204E-02 -.331E-02
   0.105E+01 -.876E+00 0.164E+02   -.105E+01 0.875E+00 -.164E+02   -.995E-02 0.451E-02 0.333E-02
   0.276E+01 -.594E+01 0.351E+02   -.278E+01 0.595E+01 -.351E+02   0.374E-01 -.154E-01 0.298E-02
   0.154E+01 -.758E+01 0.268E+02   -.155E+01 0.759E+01 -.268E+02   0.102E-01 0.943E-03 -.183E-01
   -.427E+01 0.264E+01 0.192E+02   0.427E+01 -.264E+01 -.192E+02   0.757E-02 -.353E-02 0.148E-02
   -.588E+01 0.174E+01 0.210E+02   0.589E+01 -.174E+01 -.210E+02   -.534E-02 0.840E-02 -.106E-01
   -.746E+00 -.295E+00 0.159E+02   0.753E+00 0.292E+00 -.159E+02   -.363E-02 0.149E-02 0.137E-02
   0.352E+00 0.261E+01 0.165E+02   -.349E+00 -.261E+01 -.165E+02   -.525E-02 0.317E-02 0.920E-02
   -.114E+01 -.705E+01 0.227E+02   0.114E+01 0.705E+01 -.227E+02   0.105E-01 -.546E-02 0.165E-02
   -.594E+00 -.392E+01 0.179E+02   0.587E+00 0.393E+01 -.179E+02   0.310E-02 -.374E-02 -.138E-02
   0.654E+01 -.289E+01 0.243E+02   -.654E+01 0.289E+01 -.243E+02   0.217E-02 -.565E-02 -.246E-01
   0.432E+01 -.360E+01 0.211E+02   -.432E+01 0.360E+01 -.211E+02   -.664E-02 0.563E-02 -.921E-02
   -.133E+01 0.255E+01 0.383E+02   0.133E+01 -.255E+01 -.384E+02   -.149E-01 0.150E-01 0.253E-01
   -.182E+01 -.400E+01 0.376E+02   0.182E+01 0.401E+01 -.376E+02   0.149E-01 -.214E-01 0.119E-01
   0.225E+01 -.903E+00 0.173E+02   -.224E+01 0.901E+00 -.173E+02   0.111E-02 -.161E-02 -.709E-02
   0.496E+00 0.198E+01 0.174E+02   -.492E+00 -.198E+01 -.174E+02   -.824E-02 0.515E-02 0.226E-02
   -.765E+01 0.105E+01 0.275E+02   0.767E+01 -.106E+01 -.275E+02   0.336E-02 0.121E-01 -.355E-02
   -.732E+01 -.293E+01 0.260E+02   0.734E+01 0.292E+01 -.261E+02   -.168E-01 0.121E-01 0.511E-02
   0.257E+01 -.515E+01 0.217E+02   -.257E+01 0.515E+01 -.217E+02   0.872E-02 0.108E-02 -.128E-01
   0.226E+00 -.215E+01 0.182E+02   -.230E+00 0.215E+01 -.182E+02   -.307E-02 0.282E-02 -.629E-02
   -.545E+01 -.571E+01 0.297E+02   0.545E+01 0.572E+01 -.297E+02   -.184E-01 -.119E-01 0.651E-03
   -.365E+01 -.673E+01 0.235E+02   0.365E+01 0.674E+01 -.235E+02   0.644E-03 -.756E-02 0.768E-02
   0.292E+00 0.116E+01 0.163E+02   -.295E+00 -.116E+01 -.163E+02   0.795E-02 -.592E-02 0.509E-02
   0.761E+00 0.114E+01 0.172E+02   -.765E+00 -.114E+01 -.172E+02   -.111E-02 0.340E-02 -.389E-02
   -.300E+01 0.461E+00 0.182E+02   0.300E+01 -.464E+00 -.182E+02   0.392E-02 -.143E-02 0.207E-02
   -.264E+01 -.111E+01 0.179E+02   0.264E+01 0.111E+01 -.179E+02   -.741E-02 0.420E-02 0.104E-02
   -.516E+01 -.268E+01 0.198E+02   0.517E+01 0.268E+01 -.198E+02   -.682E-02 0.174E-02 0.325E-02
   -.324E+01 -.259E+01 0.176E+02   0.324E+01 0.259E+01 -.176E+02   -.721E-02 0.155E-02 0.971E-02
   -.297E+01 -.383E+01 0.185E+02   0.297E+01 0.383E+01 -.185E+02   -.581E-02 -.170E-02 0.692E-02
   -.449E+00 -.975E+00 0.166E+02   0.449E+00 0.976E+00 -.166E+02   0.253E-02 -.547E-03 0.833E-02
   0.111E+01 0.276E+01 0.170E+02   -.111E+01 -.276E+01 -.170E+02   -.459E-02 0.421E-02 0.811E-02
   0.347E+01 0.543E+01 0.203E+02   -.347E+01 -.543E+01 -.203E+02   0.279E-02 0.223E-02 0.113E-01
   0.306E+00 0.469E+01 0.182E+02   -.299E+00 -.469E+01 -.182E+02   -.365E-02 0.440E-02 0.109E-02
   -.800E-01 0.750E+01 0.234E+02   0.879E-01 -.751E+01 -.234E+02   -.135E-01 0.678E-02 0.666E-02
   -.884E+00 0.171E+01 0.180E+02   0.887E+00 -.171E+01 -.180E+02   0.297E-02 -.281E-02 -.288E-02
   -.347E+01 0.429E+01 0.205E+02   0.348E+01 -.430E+01 -.205E+02   -.986E-02 0.222E-02 -.722E-02
   -.743E+00 -.195E+01 0.172E+02   0.740E+00 0.195E+01 -.172E+02   0.937E-02 -.237E-02 0.319E-02
   -.177E+01 0.675E+00 0.165E+02   0.176E+01 -.674E+00 -.165E+02   -.129E-02 0.260E-02 -.603E-02
   0.178E+00 -.122E+01 0.164E+02   -.181E+00 0.122E+01 -.164E+02   0.619E-02 -.396E-02 0.597E-02
   0.192E+01 0.138E+01 0.165E+02   -.193E+01 -.138E+01 -.165E+02   0.327E-02 0.104E-02 0.311E-02
   0.281E-01 -.667E-02 -.275E+03   -.295E-01 0.842E-02 0.275E+03   -.325E-02 0.216E-02 -.107E-01
   -.229E+03 0.156E+03 -.423E+03   0.279E+03 -.190E+03 0.427E+03   -.512E+02 0.348E+02 -.345E+01
   0.229E+03 -.156E+03 -.404E+03   -.279E+03 0.190E+03 0.401E+03   0.512E+02 -.348E+02 0.307E+01
 -----------------------------------------------------------------------------------------------
   -.370E-02 0.113E-01 0.364E+00   0.568E-13 0.284E-13 0.000E+00   0.379E-02 -.113E-01 -.365E+00
 
 
 POSITION                                       TOTAL-FORCE (eV/Angst)
 -----------------------------------------------------------------------------------
     11.98348      0.00342      0.01417         0.002851     -0.001187     -0.000971
     -0.34154      1.42665      0.01100        -0.002037     -0.000135     -0.002756
      2.12355      0.00315      0.01249        -0.001348      0.008238     -0.005191
      2.12326      1.42653      0.00641         0.010797      0.000289     -0.005003
     10.75099      2.13819      0.01213         0.000171     -0.005058      0.000119
     -1.57382      3.56123      0.01110        -0.007945      0.005071     -0.001294
      0.89078      2.13854      0.00548         0.007363     -0.017012      0.004045
      0.89099      3.56147      0.00181        -0.013346     -0.001315      0.013235
      4.58864      0.00346      0.01135         0.004482     -0.016844     -0.002724
      4.58894      1.42623      0.00646        -0.020055      0.011165      0.015938
      9.51854      4.27281      0.01369         0.006839     -0.003407      0.000248
     -2.80632      5.69591      0.01434        -0.006231      0.003270      0.000816
      2.12300      4.27302      0.00000         0.021597     -0.003346      0.022605
      2.12335      5.69594      0.00581        -0.001436      0.010281     -0.001722
      7.05344      0.00333      0.01399         0.008709     -0.004862     -0.000273
      7.05353      1.42635      0.01368        -0.001401      0.004376     -0.003396
      8.28610      6.40752      0.01601         0.003377     -0.001570     -0.000708
     -4.03885      7.83070      0.01636        -0.001893      0.000927     -0.000114
      3.35586      6.40753      0.01007         0.004338      0.000576     -0.001079
      3.35599      7.83072      0.01320        -0.003495      0.000537     -0.000467
     -0.34146      4.27290      0.00723        -0.002215     -0.000941     -0.003831
     -0.34138      5.69591      0.00946        -0.008631      0.005747     -0.000880
      3.35624      2.13791      0.00222        -0.011679      0.010244      0.020706
      3.35573      3.56155      0.00139         0.012294     -0.013496      0.012691
     -1.57395      6.40758      0.01311         0.006075     -0.004152     -0.000531
     -1.57385      7.83068      0.01438        -0.004553      0.003704      0.000121
      5.82093      2.13784      0.01033         0.017280      0.004511     -0.001990
      5.82114      3.56097      0.01156        -0.004837      0.007190     -0.002918
      0.89092      6.40755      0.00907         0.003992      0.001994     -0.001901
      0.89106      7.83068      0.01235        -0.007022      0.003277      0.000414
      4.58871      4.27293      0.00850        -0.010311     -0.005312     -0.008650
      4.58852      5.69606      0.01149         0.001781      0.000538     -0.003351
      9.51845      0.00337      0.01490         0.004501     -0.004563      0.000214
      9.51855      1.42644      0.01438        -0.005036      0.005786     -0.000269
      8.28593      2.13803      0.01453         0.006021     -0.003661      0.000627
      8.28613      3.56115      0.01464        -0.004077      0.001907      0.000048
      7.05356      4.27269      0.01457         0.003597     -0.000945     -0.000346
      7.05362      5.69588      0.01553        -0.002280      0.001248     -0.000119
      5.82112      6.40755      0.01489        -0.002301      0.001844      0.000060
      5.82102      7.83073      0.01579         0.002576      0.000502     -0.000280
      7.05363      8.54227      0.01631        -0.004474      0.000765      0.001130
     -5.27149      9.96549      0.01495        -0.000673     -0.002503     -0.001890
     -2.80638      8.54234      0.01558         0.003482     -0.001941     -0.000978
     -2.80627      9.96553      0.01362        -0.005317     -0.000413     -0.003437
     -0.34149      8.54239      0.01378         0.005807     -0.004314      0.000292
     -0.34138      9.96550      0.01354        -0.005438      0.000069     -0.000966
      2.12343      8.54232      0.01336         0.005575     -0.001519      0.000818
      2.12354      9.96544      0.01469        -0.005737      0.004044     -0.001805
      4.58846      8.54235      0.01505         0.003474     -0.002814      0.000974
      4.58853      9.96550      0.01517        -0.003326      0.003326      0.000268
      3.04930      2.68154      5.00000        -0.004404      0.003861      0.015485
      4.02070      2.02068      5.06442        -0.584813      0.397488     -0.061912
      2.07767      3.34267      4.94055         0.589330     -0.401467      0.010898
 -----------------------------------------------------------------------------------
    total drift:                                0.000096     -0.000048     -0.000903


--------------------------------------------------------------------------------------------------------



  FREE ENERGIE OF THE ION-ELECTRON SYSTEM (eV)
  ---------------------------------------------------
  free  energy   TOTEN  =      -427.07750287 eV

  energy  without entropy=     -427.07750287  energy(sigma->0) =     -427.07750287
 


--------------------------------------------------------------------------------------------------------


    POTLOK:  cpu time    3.1429: real time    3.1695


--------------------------------------------------------------------------------------------------------


 writing wavefunctions
     LOOP+:  cpu time  203.1961: real time  205.5040
    4ORBIT:  cpu time    0.0000: real time    0.0000

 total amount of memory used by VASP MPI-rank0    85439. kBytes
=======================================================================

   base      :      30000. kBytes
   nonl-proj :       6586. kBytes
   fftplans  :      14299. kBytes
   grid      :      23511. kBytes
   one-center:          6. kBytes
   wavefun   :      11037. kBytes
 
  
  
 General timing and accounting informations for this job:
 ========================================================
  
                  Total CPU time used (sec):      236.974
                            User time (sec):      219.668
                          System time (sec):       17.307
                         Elapsed time (sec):      240.738
  
                   Maximum memory used (kb):      677580.
                   Average memory used (kb):          N/A
  
                          Minor page faults:       411844
                          Major page faults:           81
                 Voluntary context switches:         3599
