 vasp.6.2.1 16May21 (build Nov 06 2021 14:46:37) complex                        
  
 executed on             LinuxIFC date 2025.03.03  18:49:39
 running on  112 total cores
 distrk:  each k-point on  112 cores,    1 groups
 distr:  one band on NCORE=  28 cores,    4 groups


--------------------------------------------------------------------------------------------------------


 INCAR:
   ALGO = Conjugate
   NPAR = 4
   ISMEAR = 0
   SIGMA = 0.01
   PREC = Accurate
   EDIFF = 1E-7
   ENCUT = 1000
   ISIF = 0
   GGA = MK
   LUSE_VDW = .TRUE.
   PARAM1 = 0.1234
   PARAM2 = 0.711357
   ZAB_VDW = -1.8867
   AGGAC = 0.0000
   LASPH = .TRUE.

 POTCAR:    PAW_PBE C_h 06Feb2004                 
 POTCAR:    PAW_PBE O_h 06Feb2004                 
 -----------------------------------------------------------------------------
|                                                                             |
|           W    W    AA    RRRRR   N    N  II  N    N   GGGG   !!!           |
|           W    W   A  A   R    R  NN   N  II  NN   N  G    G  !!!           |
|           W    W  A    A  R    R  N N  N  II  N N  N  G       !!!           |
|           W WW W  AAAAAA  RRRRR   N  N N  II  N  N N  G  GGG   !            |
|           WW  WW  A    A  R   R   N   NN  II  N   NN  G    G                |
|           W    W  A    A  R    R  N    N  II  N    N   GGGG   !!!           |
|                                                                             |
|     For optimal performance we recommend to set                             |
|       NCORE = 2 up to number-of-cores-per-socket                            |
|     NCORE specifies how many cores store one orbital (NPAR=cpu/NCORE).      |
|     This setting can greatly improve the performance of VASP for DFT.       |
|     The default, NCORE=1 might be grossly inefficient on modern             |
|     multi-core architectures or massively parallel machines. Do your        |
|     own testing! More info at https://www.vasp.at/wiki/index.php/NCORE      |
|     Unfortunately you need to use the default for GW and RPA                |
|     calculations (for HF NCORE is supported but not extensively tested      |
|     yet).                                                                   |
|                                                                             |
 -----------------------------------------------------------------------------

 -----------------------------------------------------------------------------
|                                                                             |
|               ----> ADVICE to this user running VASP <----                  |
|                                                                             |
|     You have switched on vdW-DFT.                                           |
|     This routine was written and supplied by Jiri Klimes. We recommend      |
|     that you carefully read and cite the following publications:            |
|       J. Klimes, D.R. Bowler, A. Michelides                                 |
|          J. Phys.: Cond Matt. 22 022201 (2010)                              |
|       J. Klimes, D.R. Bowler, A. Michelides                                 |
|          Phys. Rev. B. 83, 195131 (2011)                                    |
|     and references therein.                                                 |
|                                                                             |
 -----------------------------------------------------------------------------

 POTCAR:    PAW_PBE C_h 06Feb2004                 
   VRHFIN =C: s2p2                                                                                  
   LEXCH  = PE                                                                                      
   EATOM  =   147.1560 eV,   10.8157 Ry                                                             
                                                                                                    
   TITEL  = PAW_PBE C_h 06Feb2004                                                                   
   LULTRA =        F    use ultrasoft PP ?                                                          
   IUNSCR =        1    unscreen: 0-lin 1-nonlin 2-no                                               
   RPACOR =    0.800    partial core radius                                                         
   POMASS =   12.011; ZVAL   =    4.000    mass and valenz                                          
   RCORE  =    1.100    outmost cutoff radius                                                       
   RWIGS  =    1.630; RWIGS  =    0.863    wigner-seitz radius (au A)                               
   ENMAX  =  700.000; ENMIN  =  500.000 eV                                                          
   ICORE  =        2    local potential                                                             
   LCOR   =        T    correct aug charges                                                         
   LPAW   =        T    paw PP                                                                      
   EAUG   =  946.768                                                                                
   DEXC   =    0.000                                                                                
   RMAX   =    1.128    core radius for proj-oper                                                   
   RAUG   =    1.300    factor for augmentation sphere                                              
   RDEP   =    1.162    radius for radial grids                                                     
   RDEPT  =    1.088    core radius for aug-charge                                                  
                                                                                                    
   Atomic configuration                                                                             
    4 entries                                                                                       
     n  l   j            E        occ.                                                              
     1  0  0.50      -273.3789   2.0000                                                             
     2  0  0.50       -13.7508   2.0000                                                             
     2  1  0.50        -5.2854   2.0000                                                             
     3  2  1.50        -5.4423   0.0000                                                             
   Description                                                                                      
     l       E           TYP  RCUT    TYP  RCUT                                                     
     0    -13.7508458     23  1.100                                                                 
     0     -8.2022199     23  1.100                                                                 
     1     -5.2854383     23  1.100                                                                 
     1      1.1560700     23  1.100                                                                 
     2     -5.4423304      7  1.100                                                                 
  local pseudopotential read in
  partial core-charges read in
  partial kinetic energy density read in
  atomic valenz-charges read in
  non local Contribution for L=           0  read in
    real space projection operators read in
  non local Contribution for L=           0  read in
    real space projection operators read in
  non local Contribution for L=           1  read in
    real space projection operators read in
  non local Contribution for L=           1  read in
    real space projection operators read in
    PAW grid and wavefunctions read in
 
   number of l-projection  operators is LMAX  =           4
   number of lm-projection operators is LMMAX =           8
 
 POTCAR:    PAW_PBE O_h 06Feb2004                 
   VRHFIN =O: s2p4                                                                                  
   LEXCH  = PE                                                                                      
   EATOM  =   432.3788 eV,   31.7789 Ry                                                             
                                                                                                    
   TITEL  = PAW_PBE O_h 06Feb2004                                                                   
   LULTRA =        F    use ultrasoft PP ?                                                          
   IUNSCR =        1    unscreen: 0-lin 1-nonlin 2-no                                               
   RPACOR =    0.800    partial core radius                                                         
   POMASS =   16.000; ZVAL   =    6.000    mass and valenz                                          
   RCORE  =    1.100    outmost cutoff radius                                                       
   RWIGS  =    1.400; RWIGS  =    0.741    wigner-seitz radius (au A)                               
   ENMAX  =  700.000; ENMIN  =  500.000 eV                                                          
   ICORE  =        2    local potential                                                             
   LCOR   =        T    correct aug charges                                                         
   LPAW   =        T    paw PP                                                                      
   EAUG   =  888.804                                                                                
   DEXC   =    0.000                                                                                
   RMAX   =    1.128    core radius for proj-oper                                                   
   RAUG   =    1.300    factor for augmentation sphere                                              
   RDEP   =    1.125    radius for radial grids                                                     
   RDEPT  =    1.088    core radius for aug-charge                                                  
                                                                                                    
   Atomic configuration                                                                             
    4 entries                                                                                       
     n  l   j            E        occ.                                                              
     1  0  0.50      -514.6923   2.0000                                                             
     2  0  0.50       -23.9615   2.0000                                                             
     2  1  0.50        -9.0305   4.0000                                                             
     3  2  1.50        -9.5241   0.0000                                                             
   Description                                                                                      
     l       E           TYP  RCUT    TYP  RCUT                                                     
     0    -23.9615319     23  1.100                                                                 
     0    -25.3221145     23  1.100                                                                 
     1     -9.0304911     23  1.100                                                                 
     1     -5.4802209     23  1.100                                                                 
     2     -9.5240782      7  1.100                                                                 
  local pseudopotential read in
  partial core-charges read in
  partial kinetic energy density read in
  atomic valenz-charges read in
  non local Contribution for L=           0  read in
    real space projection operators read in
  non local Contribution for L=           0  read in
    real space projection operators read in
  non local Contribution for L=           1  read in
    real space projection operators read in
  non local Contribution for L=           1  read in
    real space projection operators read in
    PAW grid and wavefunctions read in
 
   number of l-projection  operators is LMAX  =           4
   number of lm-projection operators is LMMAX =           8
 
 -----------------------------------------------------------------------------
|                                                                             |
|               ----> ADVICE to this user running VASP <----                  |
|                                                                             |
|     You have a (more or less) 'large supercell' and for larger cells it     |
|     might be more efficient to use real-space projection operators.         |
|     Therefore, try LREAL= Auto in the INCAR file.                           |
|     Mind: For very accurate calculation, you might also keep the            |
|     reciprocal projection scheme (i.e. LREAL=.FALSE.).                      |
|                                                                             |
 -----------------------------------------------------------------------------

 -----------------------------------------------------------------------------
|                                                                             |
|               ----> ADVICE to this user running VASP <----                  |
|                                                                             |
|     You enforced a specific xc type in the INCAR file but a different       |
|     type was found in the POTCAR file.                                      |
|     I HOPE YOU KNOW WHAT YOU ARE DOING!                                     |
|                                                                             |
 -----------------------------------------------------------------------------

  PAW_PBE C_h 06Feb2004                 :
 energy of atom  1       EATOM= -147.1560
 kinetic energy error for atom=    0.0031 (will be added to EATOM!!)
  PAW_PBE O_h 06Feb2004                 :
 energy of atom  2       EATOM= -432.3788
 kinetic energy error for atom=    0.0171 (will be added to EATOM!!)
 
 
 POSCAR:  C  O
  positions in cartesian coordinates
  No initial velocities read in
 exchange correlation table for  LEXCH =       43
   RHO(1)=    0.500       N(1)  =     2000
   RHO(2)=  100.500       N(2)  =     4000
 


--------------------------------------------------------------------------------------------------------


 ion  position               nearest neighbor table
   1  0.972  0.000  0.001-  50 1.42   2 1.42  42 1.42
   2  0.039  0.134  0.001-   5 1.42   7 1.42   1 1.42
   3  0.172  0.000  0.001-  42 1.42  44 1.42   4 1.42
   4  0.239  0.134  0.000-   7 1.42   3 1.42  23 1.42
   5  0.972  0.200  0.001-   6 1.42   2 1.42  34 1.42
   6  0.039  0.334  0.001-   5 1.42  21 1.42  11 1.42
   7  0.172  0.200  0.000-   8 1.42   2 1.42   4 1.42
   8  0.239  0.334  0.000-  13 1.42   7 1.42  21 1.42
   9  0.372  0.000  0.001-  10 1.42  44 1.42  46 1.42
  10  0.439  0.134  0.000-  27 1.42   9 1.42  23 1.42
  11  0.972  0.400  0.001-  12 1.42  36 1.42   6 1.42
  12  0.039  0.534  0.001-  25 1.42  11 1.42  17 1.42
  13  0.372  0.400  0.000-   8 1.42  14 1.42  24 1.42
  14  0.439  0.534  0.000-  13 1.42  29 1.42  19 1.42
  15  0.572  0.000  0.001-  46 1.42  16 1.42  48 1.42
  16  0.639  0.134  0.001-  15 1.42  35 1.42  27 1.42
  17  0.972  0.600  0.001-  38 1.42  18 1.42  12 1.42
  18  0.039  0.734  0.001-  43 1.42  41 1.42  17 1.42
  19  0.572  0.600  0.001-  14 1.42  20 1.42  32 1.42
  20  0.639  0.734  0.001-  49 1.42  19 1.42  47 1.42
  21  0.172  0.400  0.000-  22 1.42   8 1.42   6 1.42
  22  0.239  0.534  0.000-  21 1.42  29 1.42  25 1.42
  23  0.372  0.200  0.000-  10 1.42   4 1.42  24 1.42
  24  0.439  0.334  0.000-  13 1.42  31 1.42  23 1.42
  25  0.172  0.600  0.001-  26 1.42  12 1.42  22 1.42
  26  0.239  0.734  0.001-  25 1.42  45 1.42  43 1.42
  27  0.572  0.200  0.001-  10 1.42  28 1.42  16 1.42
  28  0.639  0.334  0.001-  27 1.42  37 1.42  31 1.42
  29  0.372  0.600  0.000-  22 1.42  14 1.42  30 1.42
  30  0.439  0.734  0.001-  47 1.42  29 1.42  45 1.42
  31  0.572  0.400  0.000-  32 1.42  28 1.42  24 1.42
  32  0.639  0.534  0.001-  31 1.42  39 1.42  19 1.42
  33  0.772  0.000  0.001-  34 1.42  48 1.42  50 1.42
  34  0.839  0.134  0.001-  33 1.42   5 1.42  35 1.42
  35  0.772  0.200  0.001-  36 1.42  16 1.42  34 1.42
  36  0.839  0.334  0.001-  35 1.42  11 1.42  37 1.42
  37  0.772  0.400  0.001-  28 1.42  38 1.42  36 1.42
  38  0.839  0.534  0.001-  17 1.42  37 1.42  39 1.42
  39  0.772  0.600  0.001-  40 1.42  38 1.42  32 1.42
  40  0.839  0.734  0.001-  39 1.42  49 1.42  41 1.42
  41  0.972  0.800  0.001-  18 1.42  42 1.42  40 1.42
  42  0.039  0.934  0.001-   3 1.42  41 1.42   1 1.42
  43  0.172  0.800  0.001-  18 1.42  44 1.42  26 1.42
  44  0.239  0.934  0.001-   9 1.42  43 1.42   3 1.42
  45  0.372  0.800  0.001-  26 1.42  46 1.42  30 1.42
  46  0.439  0.934  0.001-  15 1.42  45 1.42   9 1.42
  47  0.572  0.800  0.001-  30 1.42  48 1.42  20 1.42
  48  0.639  0.934  0.001-  47 1.42  33 1.42  15 1.42
  49  0.772  0.800  0.001-  50 1.42  20 1.42  40 1.42
  50  0.839  0.934  0.001-  49 1.42   1 1.42  33 1.42
  51  0.373  0.251  0.472-  52 1.18  53 1.18
  52  0.421  0.189  0.475-  51 1.18
  53  0.325  0.313  0.469-  51 1.18
 
  LATTYP: Found a hexagonal cell.
 ALAT       =    12.3250000000
 C/A-ratio  =     1.6227180527
  
  Lattice vectors:
  
 A1 = (  12.3250000000,   0.0000000000,   0.0000000000)
 A2 = (  -6.1625000000,  10.6737631016,   0.0000000000)
 A3 = (   0.0000000000,   0.0000000000,  20.0000000000)


Analysis of symmetry for initial positions (statically):
=====================================================================
 Subroutine PRICEL returns:
 Original cell was already a primitive cell.
 

 Routine SETGRP: Setting up the symmetry group for a 
 hexagonal supercell.


 Subroutine GETGRP returns: Found  1 space group operations
 (whereof  1 operations were pure point group operations)
 out of a pool of 24 trial point group operations.


The static configuration has the point symmetry C_1 .


Analysis of symmetry for dynamics (positions and initial velocities):
=====================================================================
 Subroutine PRICEL returns:
 Original cell was already a primitive cell.
 

 Routine SETGRP: Setting up the symmetry group for a 
 hexagonal supercell.


 Subroutine GETGRP returns: Found  1 space group operations
 (whereof  1 operations were pure point group operations)
 out of a pool of 24 trial point group operations.


The dynamic configuration has the point symmetry C_1 .


 Subroutine INISYM returns: Found  1 space group operations
 (whereof  1 operations are pure point group operations),
 and found     1 'primitive' translations


----------------------------------------------------------------------------------------

                                     Primitive cell                                     

  volume of cell :    2631.0826

  direct lattice vectors                    reciprocal lattice vectors
    12.325000000  0.000000000  0.000000000     0.081135903  0.046843835  0.000000000
    -6.162500000 10.673763102  0.000000000     0.000000000  0.093687670  0.000000000
     0.000000000  0.000000000 20.000000000     0.000000000  0.000000000  0.050000000

  length of vectors
    12.325000000 12.325000000 20.000000000     0.093687670  0.093687670  0.050000000

  position of ions in fractional coordinates (direct lattice)
     0.972450841  0.000320818  0.000708389
     0.039118382  0.133659505  0.000550216
     0.172443627  0.000295449  0.000624535
     0.239096278  0.133647917  0.000320585
     0.972452058  0.200322012  0.000606523
     0.039128360  0.333643771  0.000555187
     0.172451764  0.200354552  0.000273959
     0.239124359  0.333665720  0.000090325
     0.372465565  0.000324403  0.000567391
     0.439137473  0.133619939  0.000322923
     0.972449824  0.400309362  0.000684513
     0.039124981  0.533636789  0.000716763
     0.372416176  0.400329481  0.000000000
     0.439099602  0.533638981  0.000290518
     0.572443676  0.000312125  0.000699475
     0.639110207  0.133631751  0.000684093
     0.972452703  0.600305653  0.000800361
     0.039124495  0.733640359  0.000818141
     0.572433471  0.600306242  0.000503618
     0.639111888  0.733641879  0.000659881
     0.172454630  0.400318228  0.000361306
     0.239120185  0.533636548  0.000473136
     0.372459750  0.200295993  0.000111246
     0.439107096  0.333673419  0.000069702
     0.172452155  0.600311506  0.000655425
     0.239123371  0.733638574  0.000718912
     0.572431082  0.200289171  0.000516621
     0.639112773  0.333618630  0.000577970
     0.372439808  0.600308022  0.000453556
     0.439116090  0.733637858  0.000617737
     0.572469358  0.400320504  0.000424897
     0.639119408  0.533650873  0.000574513
     0.772445723  0.000315427  0.000745201
     0.839116277  0.133640203  0.000719132
     0.772440513  0.200307432  0.000726291
     0.839120241  0.333635728  0.000731834
     0.772446320  0.400298367  0.000728722
     0.839118980  0.533633964  0.000776376
     0.772456143  0.600308173  0.000744639
     0.839115033  0.733643180  0.000789390
     0.972455313  0.800305582  0.000815291
     0.039114714  0.933643289  0.000747563
     0.172457971  0.800312211  0.000779216
     0.239134551  0.933647193  0.000681063
     0.372451396  0.800316674  0.000689249
     0.439124489  0.933644769  0.000676788
     0.572441101  0.800310054  0.000668168
     0.639115067  0.933638985  0.000734556
     0.772445098  0.800313187  0.000752577
     0.839116614  0.933644338  0.000758538
     0.373021009  0.251226878  0.471937156
     0.420879805  0.189313152  0.475158249
     0.325156981  0.313167186  0.468964413

  ion indices of the primitive-cell ions
   primitive index   ion index
                 1           1
                 2           2
                 3           3
                 4           4
                 5           5
                 6           6
                 7           7
                 8           8
                 9           9
                10          10
                11          11
                12          12
                13          13
                14          14
                15          15
                16          16
                17          17
                18          18
                19          19
                20          20
                21          21
                22          22
                23          23
                24          24
                25          25
                26          26
                27          27
                28          28
                29          29
                30          30
                31          31
                32          32
                33          33
                34          34
                35          35
                36          36
                37          37
                38          38
                39          39
                40          40
                41          41
                42          42
                43          43
                44          44
                45          45
                46          46
                47          47
                48          48
                49          49
                50          50
                51          51
                52          52
                53          53

----------------------------------------------------------------------------------------

 
 
 KPOINTS: auto                                    

Automatic generation of k-mesh.
 Grid dimensions read from file:
 generate k-points for:    1    1    1

 Generating k-lattice:

  Cartesian coordinates                     Fractional coordinates (reciprocal lattice)
     0.081135903  0.046843835  0.000000000     1.000000000 -0.000000000  0.000000000
     0.000000000  0.093687670  0.000000000     0.000000000  1.000000000  0.000000000
     0.000000000  0.000000000  0.050000000     0.000000000  0.000000000  1.000000000

  Length of vectors
     0.093687670  0.093687670  0.050000000

  Shift w.r.t. Gamma in fractional coordinates (k-lattice)
     0.000000000  0.000000000  0.000000000

 
 Subroutine IBZKPT returns following result:
 ===========================================
 
 Found      1 irreducible k-points:
 
 Following reciprocal coordinates:
            Coordinates               Weight
  0.000000  0.000000  0.000000      1.000000
 
 Following cartesian coordinates:
            Coordinates               Weight
  0.000000  0.000000  0.000000      1.000000
 


--------------------------------------------------------------------------------------------------------




 Dimension of arrays:
   k-points           NKPTS =      1   k-points in BZ     NKDIM =      1   number of bands    NBANDS=    136
   number of dos      NEDOS =    301   number of ions     NIONS =     53
   non local maximal  LDIM  =      4   non local SUM 2l+1 LMDIM =      8
   total plane-waves  NPLWV = ******
   max r-space proj   IRMAX =      1   max aug-charges    IRDMAX=   9736
   dimension x,y,z NGX =   128 NGY =  128 NGZ =  210
   dimension x,y,z NGXF=   256 NGYF=  256 NGZF=  420
   support grid    NGXF=   256 NGYF=  256 NGZF=  420
   ions per type =              51   2
   NGX,Y,Z   is equivalent  to a cutoff of  17.27, 17.27, 17.46 a.u.
   NGXF,Y,Z  is equivalent  to a cutoff of  34.53, 34.53, 34.91 a.u.

 SYSTEM =  unknown system                          
 POSCAR =   C  O                                   

 Startparameter for this run:
   NWRITE =      2    write-flag & timer
   PREC   = accura    normal or accurate (medium, high low for compatibility)
   ISTART =      0    job   : 0-new  1-cont  2-samecut
   ICHARG =      2    charge: 1-file 2-atom 10-const
   ISPIN  =      1    spin polarized calculation?
   LNONCOLLINEAR =      F non collinear calculations
   LSORBIT =      F    spin-orbit coupling
   INIWAV =      1    electr: 0-lowe 1-rand  2-diag
   LASPH  =      T    aspherical Exc in radial PAW
 Electronic Relaxation 1
   ENCUT  = 1000.0 eV  73.50 Ry    8.57 a.u.  31.78 31.78 51.57*2*pi/ulx,y,z
   ENINI  = 1000.0     initial cutoff
   ENAUG  =  946.8 eV  augmentation charge cutoff
   NELM   =     60;   NELMIN=  2; NELMDL= -5     # of ELM steps 
   EDIFF  = 0.1E-06   stopping-criterion for ELM
   LREAL  =      F    real-space projection
   NLSPLINE    = F    spline interpolate recip. space projectors
   LCOMPAT=      F    compatible to vasp.4.4
   GGA_COMPAT  = T    GGA compatible to vasp.4.4-vasp.4.6
   LMAXPAW     = -100 max onsite density
   LMAXMIX     =    2 max onsite mixed and CHGCAR
   VOSKOWN=      0    Vosko Wilk Nusair interpolation
   ROPT   =    0.00000   0.00000
 Ionic relaxation
   EDIFFG = 0.1E-05   stopping-criterion for IOM
   NSW    =      0    number of steps for IOM
   NBLOCK =      1;   KBLOCK =      1    inner block; outer block 
   IBRION =     -1    ionic relax: 0-MD 1-quasi-New 2-CG
   NFREE  =      0    steps in history (QN), initial steepest desc. (CG)
   ISIF   =      0    stress and relaxation
   IWAVPR =     10    prediction:  0-non 1-charg 2-wave 3-comb
   ISYM   =      2    0-nonsym 1-usesym 2-fastsym
   LCORR  =      T    Harris-Foulkes like correction to forces

   POTIM  = 0.5000    time-step for ionic-motion
   TEIN   =    0.0    initial temperature
   TEBEG  =    0.0;   TEEND  =   0.0 temperature during run
   SMASS  =  -3.00    Nose mass-parameter (am)
   estimated Nose-frequenzy (Omega)   =  0.10E-29 period in steps = 0.13E+47 mass=  -0.347E-26a.u.
   SCALEE = 1.0000    scale energy and forces
   NPACO  =    256;   APACO  = 16.0  distance and # of slots for P.C.
   PSTRESS=    0.0 pullay stress

  Mass of Ions in am
   POMASS =  12.01 16.00
  Ionic Valenz
   ZVAL   =   4.00  6.00
  Atomic Wigner-Seitz radii
   RWIGS  =  -1.00 -1.00
  virtual crystal weights 
   VCA    =   1.00  1.00
   NELECT =     216.0000    total number of electrons
   NUPDOWN=      -1.0000    fix difference up-down

 DOS related values:
   EMIN   =  10.00;   EMAX   =-10.00  energy-range for DOS
   EFERMI =   0.00
   ISMEAR =     0;   SIGMA  =   0.01  broadening in eV -4-tet -1-fermi 0-gaus

 Electronic relaxation 2 (details)
   IALGO  =     58    algorithm
   LDIAG  =      T    sub-space diagonalisation (order eigenvalues)
   LSUBROT=      F    optimize rotation matrix (better conditioning)
   TURBO    =      0    0=normal 1=particle mesh
   IRESTART =      0    0=no restart 2=restart with 2 vectors
   NREBOOT  =      0    no. of reboots
   NMIN     =      0    reboot dimension
   EREF     =   0.00    reference energy to select bands
   IMIX   =      4    mixing-type and parameters
     AMIX     =   0.40;   BMIX     =  1.00
     AMIX_MAG =   1.60;   BMIX_MAG =  1.00
     AMIN     =   0.10
     WC   =   100.;   INIMIX=   1;  MIXPRE=   1;  MAXMIX= -45

 Intra band minimization:
   WEIMIN = 0.0000     energy-eigenvalue tresh-hold
   EBREAK =  0.18E-09  absolut break condition
   DEPER  =   0.30     relativ break condition  

   TIME   =   0.40     timestep for ELM

  volume/ion in A,a.u.               =      49.64       335.01
  Fermi-wavevector in a.u.,A,eV,Ry     =   0.711510  1.344560  6.887909  0.506247
  Thomas-Fermi vector in A             =   1.798641
 
 Write flags
   LWAVE        =      T    write WAVECAR
   LDOWNSAMPLE  =      F    k-point downsampling of WAVECAR
   LCHARG       =      T    write CHGCAR
   LVTOT        =      F    write LOCPOT, total local potential
   LVHAR        =      F    write LOCPOT, Hartree potential only
   LELF         =      F    write electronic localiz. function (ELF)
   LORBIT       =      0    0 simple, 1 ext, 2 COOP (PROOUT), +10 PAW based schemes


 Dipole corrections
   LMONO  =      F    monopole corrections only (constant potential shift)
   LDIPOL =      F    correct potential (dipole corrections)
   IDIPOL =      0    1-x, 2-y, 3-z, 4-all directions 
   EPSILON=  1.0000000 bulk dielectric constant

 Exchange correlation treatment:
   GGA     =    MK    GGA type
   LEXCH   =    43    internal setting for exchange type
   VOSKOWN=      0    Vosko Wilk Nusair interpolation
   LHFCALC =     F    Hartree Fock is set to
   LHFONE  =     F    Hartree Fock one center treatment
   AEXX    =    0.0000 exact exchange contribution

 vdW DFT:
   LUSE_VDW   =     T    switch on vdW DFT
   Zab_VDW    =******    correlation parameter
   PARAM1     =0.1234
   PARAM2     =0.7114
   PARAM3     =0.0000
   -- rVV10 --
   BPARAM     = 6.3000
   CPARAM     = 0.0093

 Linear response parameters
   LEPSILON=     F    determine dielectric tensor
   LRPA    =     F    only Hartree local field effects (RPA)
   LNABLA  =     F    use nabla operator in PAW spheres
   LVEL    =     F    velocity operator in full k-point grid
   LINTERFAST=   F  fast interpolation
   KINTER  =     0    interpolate to denser k-point grid
   CSHIFT  =0.1000    complex shift for real part using Kramers Kronig
   OMEGAMAX=  -1.0    maximum frequency
   DEG_THRESHOLD= 0.2000000E-02 threshold for treating states as degnerate
   RTIME   =   -0.100 relaxation time in fs
  (WPLASMAI=    0.000 imaginary part of plasma frequency in eV, 0.658/RTIME)
   DFIELD  = 0.0000000 0.0000000 0.0000000 field for delta impulse in time
 
 Orbital magnetization related:
   ORBITALMAG=     F  switch on orbital magnetization
   LCHIMAG   =     F  perturbation theory with respect to B field
   DQ        =  0.001000  dq finite difference perturbation B field
   LLRAUG    =     F  two centre corrections for induced B field



--------------------------------------------------------------------------------------------------------


 Static calculation
 charge density and potential will be updated during run
 non-spin polarized calculation
 Conjugate gradient for all bands (Freysoldt, et al. PRB 79, 241103 (2009))
 preconditioned conjugated gradient                                        
 perform sub-space diagonalisation
    before iterative eigenvector-optimisation
 modified Broyden-mixing scheme, WC =      100.0
 initial mixing is a Kerker type mixing with AMIX =  0.4000 and BMIX =      1.0000
 Hartree-type preconditioning will be used
 using additional bands           28
 reciprocal scheme for non local part
 use partial core corrections
 no Harris-corrections to forces 
 use gradient corrections 
 use of overlap-Matrix (Vanderbilt PP)
 Gauss-broadening in eV      SIGMA  =   0.01


--------------------------------------------------------------------------------------------------------


  energy-cutoff  :     1000.00
  volume of cell :     2631.08
      direct lattice vectors                 reciprocal lattice vectors
    12.325000000  0.000000000  0.000000000     0.081135903  0.046843835  0.000000000
    -6.162500000 10.673763102  0.000000000     0.000000000  0.093687670  0.000000000
     0.000000000  0.000000000 20.000000000     0.000000000  0.000000000  0.050000000

  length of vectors
    12.325000000 12.325000000 20.000000000     0.093687670  0.093687670  0.050000000


 
 k-points in units of 2pi/SCALE and weight: auto                                    
   0.00000000  0.00000000  0.00000000       1.000
 
 k-points in reciprocal lattice and weights: auto                                    
   0.00000000  0.00000000  0.00000000       1.000
 
 position of ions in fractional coordinates (direct lattice) 
   0.97245084  0.00032082  0.00070839
   0.03911838  0.13365950  0.00055022
   0.17244363  0.00029545  0.00062454
   0.23909628  0.13364792  0.00032058
   0.97245206  0.20032201  0.00060652
   0.03912836  0.33364377  0.00055519
   0.17245176  0.20035455  0.00027396
   0.23912436  0.33366572  0.00009033
   0.37246557  0.00032440  0.00056739
   0.43913747  0.13361994  0.00032292
   0.97244982  0.40030936  0.00068451
   0.03912498  0.53363679  0.00071676
   0.37241618  0.40032948  0.00000000
   0.43909960  0.53363898  0.00029052
   0.57244368  0.00031213  0.00069947
   0.63911021  0.13363175  0.00068409
   0.97245270  0.60030565  0.00080036
   0.03912449  0.73364036  0.00081814
   0.57243347  0.60030624  0.00050362
   0.63911189  0.73364188  0.00065988
   0.17245463  0.40031823  0.00036131
   0.23912018  0.53363655  0.00047314
   0.37245975  0.20029599  0.00011125
   0.43910710  0.33367342  0.00006970
   0.17245216  0.60031151  0.00065542
   0.23912337  0.73363857  0.00071891
   0.57243108  0.20028917  0.00051662
   0.63911277  0.33361863  0.00057797
   0.37243981  0.60030802  0.00045356
   0.43911609  0.73363786  0.00061774
   0.57246936  0.40032050  0.00042490
   0.63911941  0.53365087  0.00057451
   0.77244572  0.00031543  0.00074520
   0.83911628  0.13364020  0.00071913
   0.77244051  0.20030743  0.00072629
   0.83912024  0.33363573  0.00073183
   0.77244632  0.40029837  0.00072872
   0.83911898  0.53363396  0.00077638
   0.77245614  0.60030817  0.00074464
   0.83911503  0.73364318  0.00078939
   0.97245531  0.80030558  0.00081529
   0.03911471  0.93364329  0.00074756
   0.17245797  0.80031221  0.00077922
   0.23913455  0.93364719  0.00068106
   0.37245140  0.80031667  0.00068925
   0.43912449  0.93364477  0.00067679
   0.57244110  0.80031005  0.00066817
   0.63911507  0.93363899  0.00073456
   0.77244510  0.80031319  0.00075258
   0.83911661  0.93364434  0.00075854
   0.37302101  0.25122688  0.47193716
   0.42087980  0.18931315  0.47515825
   0.32515698  0.31316719  0.46896441
 
 position of ions in cartesian coordinates  (Angst):
  11.98347958  0.00342433  0.01416777
  -0.34154264  1.42664989  0.01100432
   2.12354700  0.00315355  0.01249070
   2.12325634  1.42652621  0.00641170
  10.75098721  2.13818970  0.01213047
  -1.57382270  3.56123457  0.01110375
   0.89078307  2.13853702  0.00547917
   0.89099273  3.56146885  0.00180651
   4.58863896  0.00346260  0.01134782
   4.58893648  1.42622757  0.00645846
   9.51853763  4.27280730  0.01369027
  -2.80632132  5.69591267  0.01433526
   2.12299894  4.27302204  0.00000000
   2.12335237  5.69593607  0.00581036
   7.05344483  0.00333155  0.01398950
   7.05352764  1.42635365  0.01368187
   8.28609598  6.40752033  0.01600723
  -4.03884931  7.83070339  0.01636283
   3.35585531  6.40752662  0.01007237
   3.35598594  7.83071962  0.01319763
  -0.34145776  4.27290193  0.00722612
  -0.34137895  5.69591010  0.00946273
   3.35624236  2.13791198  0.00222492
   3.35573251  3.56155103  0.00139405
  -1.57394684  6.40758280  0.01310850
  -1.57385216  7.83068434  0.01437823
   5.82093107  2.13783916  0.01033241
   5.82114012  3.56096622  0.01155939
   0.89092245  6.40754561  0.00907111
   0.89106251  7.83067670  0.01235474
   4.58870974  4.27292622  0.00849795
   4.58852320  5.69606300  0.01149026
   9.51844972  0.00336679  0.01490402
   9.51855036  1.42644387  0.01438264
   8.28593477  2.13803408  0.01452582
   8.28612680  3.56114872  0.01463668
   7.05356221  4.27268994  0.01457444
   7.05362213  5.69588251  0.01552751
   5.82112285  6.40754723  0.01489279
   5.82101669  7.83073350  0.01578780
   7.05362858  8.54227219  0.01630582
  -5.27148792  9.96548729  0.01495127
  -2.80637951  8.54234295  0.01558431
  -2.80626749  9.96552896  0.01362126
  -0.34148805  8.54239058  0.01378498
  -0.34137657  9.96550309  0.01353576
   2.12342586  8.54231992  0.01336337
   2.12354296  9.96544135  0.01469111
   4.58845581  8.54235337  0.01505154
   4.58852904  9.96549848  0.01517076
   3.04929830  2.68153618  9.43874313
   4.02070129  2.02068374  9.50316499
   2.07766701  3.34267235  9.37928826
 


--------------------------------------------------------------------------------------------------------


 k-point   1 :   0.0000 0.0000 0.0000  plane waves:  189031

 maximum and minimum number of plane-waves per node :      6755     6748

 maximum number of plane-waves:    189031
 maximum index in each direction: 
   IXMAX=   31   IYMAX=   31   IZMAX=   51
   IXMIN=  -31   IYMIN=  -31   IZMIN=  -51


 parallel 3D FFT for wavefunctions:
    minimum data exchange during FFTs selected (reduces bandwidth)
 parallel 3D FFT for charge:
    minimum data exchange during FFTs selected (reduces bandwidth)


 total amount of memory used by VASP MPI-rank0    85439. kBytes
=======================================================================

   base      :      30000. kBytes
   nonl-proj :       6586. kBytes
   fftplans  :      14299. kBytes
   grid      :      23511. kBytes
   one-center:          6. kBytes
   wavefun   :      11037. kBytes
 
     INWAV:  cpu time    0.0000: real time    0.0000
 Broyden mixing: mesh for mixing (old mesh)
   NGX = 63   NGY = 63   NGZ =103
  (NGX  =256   NGY  =256   NGZ  =420)
  gives a total of 408807 points

 initial charge density was supplied:
 charge density of overlapping atoms calculated
 number of electron     216.0000000 magnetization 
 keeping initial charge density in first step


--------------------------------------------------------------------------------------------------------


 Maximum index for augmentation-charges          459 (set IRDMAX)


--------------------------------------------------------------------------------------------------------


 First call to EWALD:  gamma=   0.128
 Maximum number of real-space cells 3x 3x 2
 Maximum number of reciprocal cells 3x 3x 4

    FEWALD:  cpu time    0.0025: real time    0.0025


--------------------------------------- Iteration      1(   1)  ---------------------------------------


vdW kernel read from vdw_kernel.bindat
  0.0000  0.2424  0.5071  0.7962  1.1119  1.4567  1.8333  2.2446  2.6937  3.1842
  3.7199  4.3049  4.9438  5.6415  6.4036  7.2358  8.1446  9.1372 10.2212 11.4050
 12.6979 14.1099 15.6519 17.3360 19.1751 21.1837 23.3773 25.7729 28.3892 31.2465
 34.3669 37.7748 41.4965 45.5611 50.0000
 
    POTLOK:  cpu time    3.4504: real time    3.4962
    SETDIJ:  cpu time    0.0555: real time    0.0557
    TRIAL :  cpu time    1.5023: real time    1.5192
    CORREC:  cpu time    0.0005: real time    0.0005
    --------------------------------------------
      LOOP:  cpu time    5.0114: real time    5.0944

 eigenvalue-minimisations  :   272
 total energy-change (2. order) : 0.2762237E+04  (-0.1099100E+05)
 number of electron     216.0000000 magnetization 
 augmentation part      216.0000000 magnetization 

 Free energy of the ion-electron system (eV)
  ---------------------------------------------------
  alpha Z        PSCENC =        59.93625244
  Ewald energy   TEWEN  =     29245.76022916
  -Hartree energ DENC   =    -35421.21856181
  -exchange      EXHF   =         0.00000000
  -V(xc)+E(xc)   XCENC  =       412.33057731
  PAW double counting   =      6548.36373666    -6261.59511771
  entropy T*S    EENTRO =        -0.00000000
  eigenvalues    EBANDS =      -242.28607971
  atomic energy  EATOM  =      8420.94593319
  ---------------------------------------------------
  free energy    TOTEN  =      2762.23696954 eV

  energy without entropy =     2762.23696954  energy(sigma->0) =     2762.23696954


--------------------------------------------------------------------------------------------------------




--------------------------------------- Iteration      1(   2)  ---------------------------------------


    TRIAL :  cpu time    2.1115: real time    2.1325
    CORREC:  cpu time    0.0001: real time    0.0001
    --------------------------------------------
      LOOP:  cpu time    2.1684: real time    2.1902

 eigenvalue-minimisations  :   432
 total energy-change (2. order) :-0.2409482E+04  (-0.2250856E+04)
 number of electron     216.0000000 magnetization 
 augmentation part      216.0000000 magnetization 

 Free energy of the ion-electron system (eV)
  ---------------------------------------------------
  alpha Z        PSCENC =        59.93625244
  Ewald energy   TEWEN  =     29245.76022916
  -Hartree energ DENC   =    -35421.21856181
  -exchange      EXHF   =         0.00000000
  -V(xc)+E(xc)   XCENC  =       412.33057731
  PAW double counting   =      6548.36373666    -6261.59511771
  entropy T*S    EENTRO =        -0.00000000
  eigenvalues    EBANDS =     -2651.76847661
  atomic energy  EATOM  =      8420.94593319
  ---------------------------------------------------
  free energy    TOTEN  =       352.75457264 eV

  energy without entropy =      352.75457264  energy(sigma->0) =      352.75457264


--------------------------------------------------------------------------------------------------------




--------------------------------------- Iteration      1(   3)  ---------------------------------------


    TRIAL :  cpu time    1.8154: real time    1.8333
    CORREC:  cpu time    0.0001: real time    0.0001
    --------------------------------------------
      LOOP:  cpu time    1.8657: real time    1.8842

 eigenvalue-minimisations  :   360
 total energy-change (2. order) :-0.7580149E+03  (-0.7530330E+03)
 number of electron     216.0000000 magnetization 
 augmentation part      216.0000000 magnetization 

 Free energy of the ion-electron system (eV)
  ---------------------------------------------------
  alpha Z        PSCENC =        59.93625244
  Ewald energy   TEWEN  =     29245.76022916
  -Hartree energ DENC   =    -35421.21856181
  -exchange      EXHF   =         0.00000000
  -V(xc)+E(xc)   XCENC  =       412.33057731
  PAW double counting   =      6548.36373666    -6261.59511771
  entropy T*S    EENTRO =        -0.00000000
  eigenvalues    EBANDS =     -3409.78342146
  atomic energy  EATOM  =      8420.94593319
  ---------------------------------------------------
  free energy    TOTEN  =      -405.26037221 eV

  energy without entropy =     -405.26037221  energy(sigma->0) =     -405.26037221


--------------------------------------------------------------------------------------------------------




--------------------------------------- Iteration      1(   4)  ---------------------------------------


    TRIAL :  cpu time    1.8060: real time    1.8222
    CORREC:  cpu time    0.0001: real time    0.0001
    --------------------------------------------
      LOOP:  cpu time    1.8627: real time    1.9063

 eigenvalue-minimisations  :   360
 total energy-change (2. order) :-0.5358763E+02  (-0.5306921E+02)
 number of electron     216.0000000 magnetization 
 augmentation part      216.0000000 magnetization 

 Free energy of the ion-electron system (eV)
  ---------------------------------------------------
  alpha Z        PSCENC =        59.93625244
  Ewald energy   TEWEN  =     29245.76022916
  -Hartree energ DENC   =    -35421.21856181
  -exchange      EXHF   =         0.00000000
  -V(xc)+E(xc)   XCENC  =       412.33057731
  PAW double counting   =      6548.36373666    -6261.59511771
  entropy T*S    EENTRO =        -0.00000000
  eigenvalues    EBANDS =     -3463.37104676
  atomic energy  EATOM  =      8420.94593319
  ---------------------------------------------------
  free energy    TOTEN  =      -458.84799751 eV

  energy without entropy =     -458.84799751  energy(sigma->0) =     -458.84799751


--------------------------------------------------------------------------------------------------------




--------------------------------------- Iteration      1(   5)  ---------------------------------------


    TRIAL :  cpu time    1.8948: real time    1.9122
    CORREC:  cpu time    0.0001: real time    0.0001
    CHARGE:  cpu time    0.1292: real time    0.1310
    --------------------------------------------
      LOOP:  cpu time    2.0823: real time    2.1314

 eigenvalue-minimisations  :   384
 total energy-change (2. order) :-0.1507836E+01  (-0.1502727E+01)
 number of electron     216.0000000 magnetization 
 augmentation part       -0.2248425 magnetization 

 Free energy of the ion-electron system (eV)
  ---------------------------------------------------
  alpha Z        PSCENC =        59.93625244
  Ewald energy   TEWEN  =     29245.76022916
  -Hartree energ DENC   =    -35421.21856181
  -exchange      EXHF   =         0.00000000
  -V(xc)+E(xc)   XCENC  =       412.33057731
  PAW double counting   =      6548.36373666    -6261.59511771
  entropy T*S    EENTRO =        -0.00000000
  eigenvalues    EBANDS =     -3464.87888278
  atomic energy  EATOM  =      8420.94593319
  ---------------------------------------------------
  free energy    TOTEN  =      -460.35583353 eV

  energy without entropy =     -460.35583353  energy(sigma->0) =     -460.35583353


--------------------------------------------------------------------------------------------------------




--------------------------------------- Iteration      1(   6)  ---------------------------------------


    POTLOK:  cpu time    3.1319: real time    3.1573
    SETDIJ:  cpu time    0.0542: real time    0.0544
    TRIAL :  cpu time    0.8600: real time    0.8683
    CORREC:  cpu time    3.4643: real time    3.4949
    CHARGE:  cpu time    0.1152: real time    0.1165
    --------------------------------------------
      LOOP:  cpu time    7.6522: real time    7.7325

 eigenvalue-minimisations  :     0
 total energy-change (2. order) : 0.5260068E+02  (-0.1658053E+02)
 number of electron     216.0000000 magnetization 
 augmentation part       -0.3257078 magnetization 

 Free energy of the ion-electron system (eV)
  ---------------------------------------------------
  alpha Z        PSCENC =        59.93625244
  Ewald energy   TEWEN  =     29245.76022916
  -Hartree energ DENC   =    -36834.82807855
  -exchange      EXHF   =         0.00000000
  -V(xc)+E(xc)   XCENC  =       460.15701174
  PAW double counting   =     80281.02506159   -80000.69523086
  entropy T*S    EENTRO =        -0.00000000
  eigenvalues    EBANDS =     -2040.05633261
  atomic energy  EATOM  =      8420.94593319
  ---------------------------------------------------
  free energy    TOTEN  =      -407.75515390 eV

  energy without entropy =     -407.75515390  energy(sigma->0) =     -407.75515390


--------------------------------------------------------------------------------------------------------




--------------------------------------- Iteration      1(   7)  ---------------------------------------


    POTLOK:  cpu time    3.1272: real time    3.1516
    SETDIJ:  cpu time    0.0647: real time    0.0649
    TRIAL :  cpu time    0.8584: real time    0.8664
    CORREC:  cpu time    3.4877: real time    3.5151
    CHARGE:  cpu time    0.1170: real time    0.1182
    --------------------------------------------
      LOOP:  cpu time    7.7141: real time    7.7772

 eigenvalue-minimisations  :     0
 total energy-change (2. order) :-0.1663810E+02  (-0.1858837E+01)
 number of electron     216.0000000 magnetization 
 augmentation part       -0.3706909 magnetization 

 Free energy of the ion-electron system (eV)
  ---------------------------------------------------
  alpha Z        PSCENC =        59.93625244
  Ewald energy   TEWEN  =     29245.76022916
  -Hartree energ DENC   =    -36319.00440693
  -exchange      EXHF   =         0.00000000
  -V(xc)+E(xc)   XCENC  =       442.56106590
  PAW double counting   =     95268.33372658   -94985.24165888
  entropy T*S    EENTRO =        -0.00000000
  eigenvalues    EBANDS =     -2557.68439531
  atomic energy  EATOM  =      8420.94593319
  ---------------------------------------------------
  free energy    TOTEN  =      -424.39325384 eV

  energy without entropy =     -424.39325384  energy(sigma->0) =     -424.39325384


--------------------------------------------------------------------------------------------------------




--------------------------------------- Iteration      1(   8)  ---------------------------------------


    POTLOK:  cpu time    3.1164: real time    3.1410
    SETDIJ:  cpu time    0.0645: real time    0.0647
    TRIAL :  cpu time    0.8547: real time    0.8633
    CORREC:  cpu time    3.4763: real time    3.5040
    CHARGE:  cpu time    0.1168: real time    0.1179
    --------------------------------------------
      LOOP:  cpu time    7.6914: real time    7.8048

 eigenvalue-minimisations  :     0
 total energy-change (2. order) :-0.1856877E+01  (-0.4957542E+00)
 number of electron     216.0000000 magnetization 
 augmentation part       -0.3896127 magnetization 

 Free energy of the ion-electron system (eV)
  ---------------------------------------------------
  alpha Z        PSCENC =        59.93625244
  Ewald energy   TEWEN  =     29245.76022916
  -Hartree energ DENC   =    -36289.99857944
  -exchange      EXHF   =         0.00000000
  -V(xc)+E(xc)   XCENC  =       442.07570639
  PAW double counting   =     99299.07246567   -99015.65058501
  entropy T*S    EENTRO =        -0.00000000
  eigenvalues    EBANDS =     -2588.39155299
  atomic energy  EATOM  =      8420.94593319
  ---------------------------------------------------
  free energy    TOTEN  =      -426.25013059 eV

  energy without entropy =     -426.25013059  energy(sigma->0) =     -426.25013059


--------------------------------------------------------------------------------------------------------




--------------------------------------- Iteration      1(   9)  ---------------------------------------


    POTLOK:  cpu time    3.1405: real time    3.1663
    SETDIJ:  cpu time    0.0650: real time    0.0652
    TRIAL :  cpu time    0.8553: real time    0.8641
    CORREC:  cpu time    3.4838: real time    3.5132
    CHARGE:  cpu time    0.1154: real time    0.1165
    --------------------------------------------
      LOOP:  cpu time    7.7015: real time    7.7897

 eigenvalue-minimisations  :     0
 total energy-change (2. order) :-0.4958494E+00  (-0.1762709E+00)
 number of electron     216.0000000 magnetization 
 augmentation part       -0.3993219 magnetization 

 Free energy of the ion-electron system (eV)
  ---------------------------------------------------
  alpha Z        PSCENC =        59.93625244
  Ewald energy   TEWEN  =     29245.76022916
  -Hartree energ DENC   =    -36305.16602433
  -exchange      EXHF   =         0.00000000
  -V(xc)+E(xc)   XCENC  =       442.30312218
  PAW double counting   =    102085.21025486  -101801.64707314
  entropy T*S    EENTRO =        -0.00000000
  eigenvalues    EBANDS =     -2574.08867437
  atomic energy  EATOM  =      8420.94593319
  ---------------------------------------------------
  free energy    TOTEN  =      -426.74598001 eV

  energy without entropy =     -426.74598001  energy(sigma->0) =     -426.74598001


--------------------------------------------------------------------------------------------------------




--------------------------------------- Iteration      1(  10)  ---------------------------------------


    POTLOK:  cpu time    3.1239: real time    3.1497
    SETDIJ:  cpu time    0.0651: real time    0.0654
    TRIAL :  cpu time    0.8555: real time    0.8647
    CORREC:  cpu time    3.5111: real time    3.5396
    CHARGE:  cpu time    0.1161: real time    0.1173
    --------------------------------------------
      LOOP:  cpu time    7.7428: real time    7.8581

 eigenvalue-minimisations  :     0
 total energy-change (2. order) :-0.1759822E+00  (-0.7902046E-01)
 number of electron     216.0000000 magnetization 
 augmentation part       -0.4006632 magnetization 

 Free energy of the ion-electron system (eV)
  ---------------------------------------------------
  alpha Z        PSCENC =        59.93625244
  Ewald energy   TEWEN  =     29245.76022916
  -Hartree energ DENC   =    -36304.32179035
  -exchange      EXHF   =         0.00000000
  -V(xc)+E(xc)   XCENC  =       442.19507969
  PAW double counting   =    102775.83106649  -102492.17636491
  entropy T*S    EENTRO =        -0.00000000
  eigenvalues    EBANDS =     -2575.09236793
  atomic energy  EATOM  =      8420.94593319
  ---------------------------------------------------
  free energy    TOTEN  =      -426.92196222 eV

  energy without entropy =     -426.92196222  energy(sigma->0) =     -426.92196222


--------------------------------------------------------------------------------------------------------




--------------------------------------- Iteration      1(  11)  ---------------------------------------


    POTLOK:  cpu time    3.1202: real time    3.1467
    SETDIJ:  cpu time    0.0619: real time    0.0621
    TRIAL :  cpu time    0.8550: real time    0.8639
    CORREC:  cpu time    3.4962: real time    3.5250
    CHARGE:  cpu time    0.1167: real time    0.1179
    --------------------------------------------
      LOOP:  cpu time    7.7169: real time    7.7999

 eigenvalue-minimisations  :     0
 total energy-change (2. order) :-0.7869079E-01  (-0.3287168E-01)
 number of electron     216.0000000 magnetization 
 augmentation part       -0.4006416 magnetization 

 Free energy of the ion-electron system (eV)
  ---------------------------------------------------
  alpha Z        PSCENC =        59.93625244
  Ewald energy   TEWEN  =     29245.76022916
  -Hartree energ DENC   =    -36298.41327004
  -exchange      EXHF   =         0.00000000
  -V(xc)+E(xc)   XCENC  =       442.11896607
  PAW double counting   =    102442.97058295  -102159.31649632
  entropy T*S    EENTRO =        -0.00000000
  eigenvalues    EBANDS =     -2581.00285048
  atomic energy  EATOM  =      8420.94593319
  ---------------------------------------------------
  free energy    TOTEN  =      -427.00065301 eV

  energy without entropy =     -427.00065301  energy(sigma->0) =     -427.00065301


--------------------------------------------------------------------------------------------------------




--------------------------------------- Iteration      1(  12)  ---------------------------------------


    POTLOK:  cpu time    3.1232: real time    3.1508
    SETDIJ:  cpu time    0.0639: real time    0.0641
    TRIAL :  cpu time    0.8550: real time    0.8636
    CORREC:  cpu time    3.4903: real time    3.5200
    CHARGE:  cpu time    0.1163: real time    0.1181
    --------------------------------------------
      LOOP:  cpu time    7.7010: real time    7.7700

 eigenvalue-minimisations  :     0
 total energy-change (2. order) :-0.3274237E-01  (-0.1067827E-01)
 number of electron     216.0000000 magnetization 
 augmentation part       -0.4006962 magnetization 

 Free energy of the ion-electron system (eV)
  ---------------------------------------------------
  alpha Z        PSCENC =        59.93625244
  Ewald energy   TEWEN  =     29245.76022916
  -Hartree energ DENC   =    -36295.57437108
  -exchange      EXHF   =         0.00000000
  -V(xc)+E(xc)   XCENC  =       442.05180792
  PAW double counting   =    102096.23826984  -101812.60510078
  entropy T*S    EENTRO =        -0.00000000
  eigenvalues    EBANDS =     -2583.78641608
  atomic energy  EATOM  =      8420.94593319
  ---------------------------------------------------
  free energy    TOTEN  =      -427.03339538 eV

  energy without entropy =     -427.03339538  energy(sigma->0) =     -427.03339538


--------------------------------------------------------------------------------------------------------




--------------------------------------- Iteration      1(  13)  ---------------------------------------


    POTLOK:  cpu time    3.1219: real time    3.1465
    SETDIJ:  cpu time    0.0647: real time    0.0649
    TRIAL :  cpu time    0.8564: real time    0.8649
    CORREC:  cpu time    3.4795: real time    3.5082
    CHARGE:  cpu time    0.1162: real time    0.1173
    --------------------------------------------
      LOOP:  cpu time    7.7014: real time    7.7657

 eigenvalue-minimisations  :     0
 total energy-change (2. order) :-0.1066837E-01  (-0.3125786E-02)
 number of electron     216.0000000 magnetization 
 augmentation part       -0.4001523 magnetization 

 Free energy of the ion-electron system (eV)
  ---------------------------------------------------
  alpha Z        PSCENC =        59.93625244
  Ewald energy   TEWEN  =     29245.76022916
  -Hartree energ DENC   =    -36295.65335968
  -exchange      EXHF   =         0.00000000
  -V(xc)+E(xc)   XCENC  =       442.04573282
  PAW double counting   =    101941.86742155  -101658.24720380
  entropy T*S    EENTRO =        -0.00000000
  eigenvalues    EBANDS =     -2583.69906944
  atomic energy  EATOM  =      8420.94593319
  ---------------------------------------------------
  free energy    TOTEN  =      -427.04406375 eV

  energy without entropy =     -427.04406375  energy(sigma->0) =     -427.04406375


--------------------------------------------------------------------------------------------------------




--------------------------------------- Iteration      1(  14)  ---------------------------------------


    POTLOK:  cpu time    3.1267: real time    3.1505
    SETDIJ:  cpu time    0.0630: real time    0.0632
    TRIAL :  cpu time    0.8563: real time    0.8649
    CORREC:  cpu time    3.4899: real time    3.5191
    CHARGE:  cpu time    0.1166: real time    0.1178
    --------------------------------------------
      LOOP:  cpu time    7.7262: real time    7.7972

 eigenvalue-minimisations  :     0
 total energy-change (2. order) :-0.3127825E-02  (-0.1068342E-02)
 number of electron     216.0000000 magnetization 
 augmentation part       -0.3998791 magnetization 

 Free energy of the ion-electron system (eV)
  ---------------------------------------------------
  alpha Z        PSCENC =        59.93625244
  Ewald energy   TEWEN  =     29245.76022916
  -Hartree energ DENC   =    -36295.63814132
  -exchange      EXHF   =         0.00000000
  -V(xc)+E(xc)   XCENC  =       442.04311404
  PAW double counting   =    101939.34045389  -101655.72479929
  entropy T*S    EENTRO =        -0.00000000
  eigenvalues    EBANDS =     -2583.71023370
  atomic energy  EATOM  =      8420.94593319
  ---------------------------------------------------
  free energy    TOTEN  =      -427.04719158 eV

  energy without entropy =     -427.04719158  energy(sigma->0) =     -427.04719158


--------------------------------------------------------------------------------------------------------




--------------------------------------- Iteration      1(  15)  ---------------------------------------


    POTLOK:  cpu time    3.1105: real time    3.1350
    SETDIJ:  cpu time    0.0645: real time    0.0647
    TRIAL :  cpu time    0.8754: real time    0.8847
    CORREC:  cpu time    3.4727: real time    3.5018
    CHARGE:  cpu time    0.1164: real time    0.1176
    --------------------------------------------
      LOOP:  cpu time    7.7199: real time    7.7878

 eigenvalue-minimisations  :     0
 total energy-change (2. order) :-0.1070855E-02  (-0.4969772E-03)
 number of electron     216.0000000 magnetization 
 augmentation part       -0.3994588 magnetization 

 Free energy of the ion-electron system (eV)
  ---------------------------------------------------
  alpha Z        PSCENC =        59.93625244
  Ewald energy   TEWEN  =     29245.76022916
  -Hartree energ DENC   =    -36295.26977806
  -exchange      EXHF   =         0.00000000
  -V(xc)+E(xc)   XCENC  =       442.02447353
  PAW double counting   =    101942.45990142  -101658.84258461
  entropy T*S    EENTRO =        -0.00000000
  eigenvalues    EBANDS =     -2584.06268951
  atomic energy  EATOM  =      8420.94593319
  ---------------------------------------------------
  free energy    TOTEN  =      -427.04826243 eV

  energy without entropy =     -427.04826243  energy(sigma->0) =     -427.04826243


--------------------------------------------------------------------------------------------------------




--------------------------------------- Iteration      1(  16)  ---------------------------------------


    POTLOK:  cpu time    3.1192: real time    3.1437
    SETDIJ:  cpu time    0.0648: real time    0.0650
    TRIAL :  cpu time    0.8560: real time    0.8642
    CORREC:  cpu time    3.4766: real time    3.5048
    CHARGE:  cpu time    0.1166: real time    0.1178
    --------------------------------------------
      LOOP:  cpu time    7.6819: real time    7.7614

 eigenvalue-minimisations  :     0
 total energy-change (2. order) :-0.4986211E-03  (-0.2318458E-03)
 number of electron     216.0000000 magnetization 
 augmentation part       -0.3993128 magnetization 

 Free energy of the ion-electron system (eV)
  ---------------------------------------------------
  alpha Z        PSCENC =        59.93625244
  Ewald energy   TEWEN  =     29245.76022916
  -Hartree energ DENC   =    -36295.56389797
  -exchange      EXHF   =         0.00000000
  -V(xc)+E(xc)   XCENC  =       442.03586356
  PAW double counting   =    101896.07639779  -101612.46082562
  entropy T*S    EENTRO =        -0.00000000
  eigenvalues    EBANDS =     -2583.77871361
  atomic energy  EATOM  =      8420.94593319
  ---------------------------------------------------
  free energy    TOTEN  =      -427.04876106 eV

  energy without entropy =     -427.04876106  energy(sigma->0) =     -427.04876106


--------------------------------------------------------------------------------------------------------




--------------------------------------- Iteration      1(  17)  ---------------------------------------


    POTLOK:  cpu time    3.1217: real time    3.1472
    SETDIJ:  cpu time    0.0640: real time    0.0642
    TRIAL :  cpu time    0.8565: real time    0.8648
    CORREC:  cpu time    3.4674: real time    3.4966
    CHARGE:  cpu time    0.1166: real time    0.1179
    --------------------------------------------
      LOOP:  cpu time    7.6644: real time    7.7323

 eigenvalue-minimisations  :     0
 total energy-change (2. order) :-0.2326413E-03  (-0.1002580E-03)
 number of electron     216.0000000 magnetization 
 augmentation part       -0.3993485 magnetization 

 Free energy of the ion-electron system (eV)
  ---------------------------------------------------
  alpha Z        PSCENC =        59.93625244
  Ewald energy   TEWEN  =     29245.76022916
  -Hartree energ DENC   =    -36295.66267299
  -exchange      EXHF   =         0.00000000
  -V(xc)+E(xc)   XCENC  =       442.03727751
  PAW double counting   =    101851.04934247  -101567.43324758
  entropy T*S    EENTRO =        -0.00000000
  eigenvalues    EBANDS =     -2583.68210791
  atomic energy  EATOM  =      8420.94593319
  ---------------------------------------------------
  free energy    TOTEN  =      -427.04899370 eV

  energy without entropy =     -427.04899370  energy(sigma->0) =     -427.04899370


--------------------------------------------------------------------------------------------------------




--------------------------------------- Iteration      1(  18)  ---------------------------------------


    POTLOK:  cpu time    3.1436: real time    3.1724
    SETDIJ:  cpu time    0.0634: real time    0.0636
    TRIAL :  cpu time    0.8553: real time    0.8653
    CORREC:  cpu time    3.4772: real time    3.5097
    CHARGE:  cpu time    0.1168: real time    0.1182
    --------------------------------------------
      LOOP:  cpu time    7.7041: real time    7.8010

 eigenvalue-minimisations  :     0
 total energy-change (2. order) :-0.1002479E-03  (-0.3636354E-04)
 number of electron     216.0000000 magnetization 
 augmentation part       -0.3995013 magnetization 

 Free energy of the ion-electron system (eV)
  ---------------------------------------------------
  alpha Z        PSCENC =        59.93625244
  Ewald energy   TEWEN  =     29245.76022916
  -Hartree energ DENC   =    -36295.73606856
  -exchange      EXHF   =         0.00000000
  -V(xc)+E(xc)   XCENC  =       442.03995640
  PAW double counting   =    101840.06775111  -101556.45119342
  entropy T*S    EENTRO =        -0.00000000
  eigenvalues    EBANDS =     -2583.61195426
  atomic energy  EATOM  =      8420.94593319
  ---------------------------------------------------
  free energy    TOTEN  =      -427.04909394 eV

  energy without entropy =     -427.04909394  energy(sigma->0) =     -427.04909394


--------------------------------------------------------------------------------------------------------




--------------------------------------- Iteration      1(  19)  ---------------------------------------


    POTLOK:  cpu time    3.1311: real time    3.1551
    SETDIJ:  cpu time    0.0647: real time    0.0649
    TRIAL :  cpu time    0.8581: real time    0.8667
    CORREC:  cpu time    3.4975: real time    3.5269
    CHARGE:  cpu time    0.1172: real time    0.1184
    --------------------------------------------
      LOOP:  cpu time    7.7512: real time    7.8171

 eigenvalue-minimisations  :     0
 total energy-change (2. order) :-0.3609400E-04  (-0.1434753E-04)
 number of electron     216.0000000 magnetization 
 augmentation part       -0.3995722 magnetization 

 Free energy of the ion-electron system (eV)
  ---------------------------------------------------
  alpha Z        PSCENC =        59.93625244
  Ewald energy   TEWEN  =     29245.76022916
  -Hartree energ DENC   =    -36295.72457729
  -exchange      EXHF   =         0.00000000
  -V(xc)+E(xc)   XCENC  =       442.03878540
  PAW double counting   =    101850.20791605  -101566.59053183
  entropy T*S    EENTRO =        -0.00000000
  eigenvalues    EBANDS =     -2583.62313715
  atomic energy  EATOM  =      8420.94593319
  ---------------------------------------------------
  free energy    TOTEN  =      -427.04913004 eV

  energy without entropy =     -427.04913004  energy(sigma->0) =     -427.04913004


--------------------------------------------------------------------------------------------------------




--------------------------------------- Iteration      1(  20)  ---------------------------------------


    POTLOK:  cpu time    3.1193: real time    3.1450
    SETDIJ:  cpu time    0.0644: real time    0.0646
    TRIAL :  cpu time    0.8554: real time    0.8641
    CORREC:  cpu time    3.4989: real time    3.5287
    CHARGE:  cpu time    0.1162: real time    0.1174
    --------------------------------------------
      LOOP:  cpu time    7.7131: real time    7.7958

 eigenvalue-minimisations  :     0
 total energy-change (2. order) :-0.1405877E-04  (-0.6147455E-05)
 number of electron     216.0000000 magnetization 
 augmentation part       -0.3996058 magnetization 

 Free energy of the ion-electron system (eV)
  ---------------------------------------------------
  alpha Z        PSCENC =        59.93625244
  Ewald energy   TEWEN  =     29245.76022916
  -Hartree energ DENC   =    -36295.75075088
  -exchange      EXHF   =         0.00000000
  -V(xc)+E(xc)   XCENC  =       442.03995069
  PAW double counting   =    101859.81537255  -101576.19801750
  entropy T*S    EENTRO =        -0.00000000
  eigenvalues    EBANDS =     -2583.59811375
  atomic energy  EATOM  =      8420.94593319
  ---------------------------------------------------
  free energy    TOTEN  =      -427.04914410 eV

  energy without entropy =     -427.04914410  energy(sigma->0) =     -427.04914410


--------------------------------------------------------------------------------------------------------




--------------------------------------- Iteration      1(  21)  ---------------------------------------


    POTLOK:  cpu time    3.1246: real time    3.1486
    SETDIJ:  cpu time    0.0631: real time    0.0633
    TRIAL :  cpu time    0.8558: real time    0.8644
    CORREC:  cpu time    3.4998: real time    3.5277
    CHARGE:  cpu time    0.1159: real time    0.1171
    --------------------------------------------
      LOOP:  cpu time    7.7198: real time    7.7888

 eigenvalue-minimisations  :     0
 total energy-change (2. order) :-0.6024056E-05  (-0.3278814E-05)
 number of electron     216.0000000 magnetization 
 augmentation part       -0.3995888 magnetization 

 Free energy of the ion-electron system (eV)
  ---------------------------------------------------
  alpha Z        PSCENC =        59.93625244
  Ewald energy   TEWEN  =     29245.76022916
  -Hartree energ DENC   =    -36295.72765837
  -exchange      EXHF   =         0.00000000
  -V(xc)+E(xc)   XCENC  =       442.03876675
  PAW double counting   =    101862.89060889  -101579.27316820
  entropy T*S    EENTRO =        -0.00000000
  eigenvalues    EBANDS =     -2583.62011399
  atomic energy  EATOM  =      8420.94593319
  ---------------------------------------------------
  free energy    TOTEN  =      -427.04915012 eV

  energy without entropy =     -427.04915012  energy(sigma->0) =     -427.04915012


--------------------------------------------------------------------------------------------------------




--------------------------------------- Iteration      1(  22)  ---------------------------------------


    POTLOK:  cpu time    3.1144: real time    3.1382
    SETDIJ:  cpu time    0.0650: real time    0.0652
    TRIAL :  cpu time    0.8565: real time    0.8653
    CORREC:  cpu time    3.5010: real time    3.5293
    CHARGE:  cpu time    0.1160: real time    0.1171
    --------------------------------------------
      LOOP:  cpu time    7.7274: real time    7.8039

 eigenvalue-minimisations  :     0
 total energy-change (2. order) :-0.3242851E-05  (-0.1615748E-05)
 number of electron     216.0000000 magnetization 
 augmentation part       -0.3995745 magnetization 

 Free energy of the ion-electron system (eV)
  ---------------------------------------------------
  alpha Z        PSCENC =        59.93625244
  Ewald energy   TEWEN  =     29245.76022916
  -Hartree energ DENC   =    -36295.73217871
  -exchange      EXHF   =         0.00000000
  -V(xc)+E(xc)   XCENC  =       442.03909387
  PAW double counting   =    101862.20901950  -101578.59181092
  entropy T*S    EENTRO =        -0.00000000
  eigenvalues    EBANDS =     -2583.61569189
  atomic energy  EATOM  =      8420.94593319
  ---------------------------------------------------
  free energy    TOTEN  =      -427.04915336 eV

  energy without entropy =     -427.04915336  energy(sigma->0) =     -427.04915336


--------------------------------------------------------------------------------------------------------




--------------------------------------- Iteration      1(  23)  ---------------------------------------


    POTLOK:  cpu time    3.1199: real time    3.1431
    SETDIJ:  cpu time    0.0649: real time    0.0652
    TRIAL :  cpu time    0.8571: real time    0.8657
    CORREC:  cpu time    3.4844: real time    3.5135
    CHARGE:  cpu time    0.1164: real time    0.1177
    --------------------------------------------
      LOOP:  cpu time    7.7164: real time    7.7949

 eigenvalue-minimisations  :     0
 total energy-change (2. order) :-0.1629291E-05  (-0.7191256E-06)
 number of electron     216.0000000 magnetization 
 augmentation part       -0.3995704 magnetization 

 Free energy of the ion-electron system (eV)
  ---------------------------------------------------
  alpha Z        PSCENC =        59.93625244
  Ewald energy   TEWEN  =     29245.76022916
  -Hartree energ DENC   =    -36295.72604866
  -exchange      EXHF   =         0.00000000
  -V(xc)+E(xc)   XCENC  =       442.03894009
  PAW double counting   =    101860.78697420  -101577.16982852
  entropy T*S    EENTRO =        -0.00000000
  eigenvalues    EBANDS =     -2583.62160689
  atomic energy  EATOM  =      8420.94593319
  ---------------------------------------------------
  free energy    TOTEN  =      -427.04915499 eV

  energy without entropy =     -427.04915499  energy(sigma->0) =     -427.04915499


--------------------------------------------------------------------------------------------------------




--------------------------------------- Iteration      1(  24)  ---------------------------------------


    POTLOK:  cpu time    3.1207: real time    3.1442
    SETDIJ:  cpu time    0.0678: real time    0.0681
    TRIAL :  cpu time    0.8625: real time    0.8713
    CORREC:  cpu time    3.4850: real time    3.5131
    CHARGE:  cpu time    0.1177: real time    0.1189
    --------------------------------------------
      LOOP:  cpu time    7.6825: real time    7.7761

 eigenvalue-minimisations  :     0
 total energy-change (2. order) :-0.7311610E-06  (-0.3298498E-06)
 number of electron     216.0000000 magnetization 
 augmentation part       -0.3995676 magnetization 

 Free energy of the ion-electron system (eV)
  ---------------------------------------------------
  alpha Z        PSCENC =        59.93625244
  Ewald energy   TEWEN  =     29245.76022916
  -Hartree energ DENC   =    -36295.71739449
  -exchange      EXHF   =         0.00000000
  -V(xc)+E(xc)   XCENC  =       442.03868999
  PAW double counting   =    101860.03887884  -101576.42169318
  entropy T*S    EENTRO =        -0.00000000
  eigenvalues    EBANDS =     -2583.63005169
  atomic energy  EATOM  =      8420.94593319
  ---------------------------------------------------
  free energy    TOTEN  =      -427.04915572 eV

  energy without entropy =     -427.04915572  energy(sigma->0) =     -427.04915572


--------------------------------------------------------------------------------------------------------




--------------------------------------- Iteration      1(  25)  ---------------------------------------


    POTLOK:  cpu time    3.1315: real time    3.1563
    SETDIJ:  cpu time    0.0651: real time    0.0653
    TRIAL :  cpu time    0.8556: real time    0.8644
    CORREC:  cpu time    3.4889: real time    3.5169
    CHARGE:  cpu time    0.1152: real time    0.1165
    --------------------------------------------
      LOOP:  cpu time    7.7403: real time    7.8062

 eigenvalue-minimisations  :     0
 total energy-change (2. order) :-0.3333407E-06  (-0.1494358E-06)
 number of electron     216.0000000 magnetization 
 augmentation part       -0.3995699 magnetization 

 Free energy of the ion-electron system (eV)
  ---------------------------------------------------
  alpha Z        PSCENC =        59.93625244
  Ewald energy   TEWEN  =     29245.76022916
  -Hartree energ DENC   =    -36295.71962483
  -exchange      EXHF   =         0.00000000
  -V(xc)+E(xc)   XCENC  =       442.03889009
  PAW double counting   =    101859.82180538  -101576.20462482
  entropy T*S    EENTRO =        -0.00000000
  eigenvalues    EBANDS =     -2583.62801668
  atomic energy  EATOM  =      8420.94593319
  ---------------------------------------------------
  free energy    TOTEN  =      -427.04915606 eV

  energy without entropy =     -427.04915606  energy(sigma->0) =     -427.04915606


--------------------------------------------------------------------------------------------------------




--------------------------------------- Iteration      1(  26)  ---------------------------------------


    POTLOK:  cpu time    3.1305: real time    3.1544
    SETDIJ:  cpu time    0.0649: real time    0.0651
    TRIAL :  cpu time    0.8554: real time    0.8642
    CORREC:  cpu time    3.4687: real time    3.4979
    CHARGE:  cpu time    0.1163: real time    0.1175
    --------------------------------------------
      LOOP:  cpu time    7.7178: real time    7.8095

 eigenvalue-minimisations  :     0
 total energy-change (2. order) :-0.1516746E-06  (-0.7558471E-07)
 number of electron     216.0000000 magnetization 
 augmentation part       -0.3995701 magnetization 

 Free energy of the ion-electron system (eV)
  ---------------------------------------------------
  alpha Z        PSCENC =        59.93625244
  Ewald energy   TEWEN  =     29245.76022916
  -Hartree energ DENC   =    -36295.71956673
  -exchange      EXHF   =         0.00000000
  -V(xc)+E(xc)   XCENC  =       442.03885405
  PAW double counting   =    101859.82766057  -101576.21044674
  entropy T*S    EENTRO =        -0.00000000
  eigenvalues    EBANDS =     -2583.62807215
  atomic energy  EATOM  =      8420.94593319
  ---------------------------------------------------
  free energy    TOTEN  =      -427.04915621 eV

  energy without entropy =     -427.04915621  energy(sigma->0) =     -427.04915621


--------------------------------------------------------------------------------------------------------




--------------------------------------- Iteration      1(  27)  ---------------------------------------


    POTLOK:  cpu time    3.1465: real time    3.1703
    SETDIJ:  cpu time    0.0643: real time    0.0645
    TRIAL :  cpu time    0.8545: real time    0.8633
    CORREC:  cpu time    3.4848: real time    3.5117
    EDDIAG:  cpu time    0.3239: real time    0.3279
    CHARGE:  cpu time    0.1160: real time    0.1172
    --------------------------------------------
      LOOP:  cpu time    8.0597: real time    8.1260

 eigenvalue-minimisations  :     0
 total energy-change (2. order) :-0.7651397E-07  (-0.3181894E-07)
 number of electron     216.0000000 magnetization 
 augmentation part       -0.3995686 magnetization 

 Free energy of the ion-electron system (eV)
  ---------------------------------------------------
  alpha Z        PSCENC =        59.93625244
  Ewald energy   TEWEN  =     29245.76022916
  -Hartree energ DENC   =    -36295.72019987
  -exchange      EXHF   =         0.00000000
  -V(xc)+E(xc)   XCENC  =       442.03885554
  PAW double counting   =    101859.94740878  -101576.33018806
  entropy T*S    EENTRO =        -0.00000000
  eigenvalues    EBANDS =     -2583.62744748
  atomic energy  EATOM  =      8420.94593319
  ---------------------------------------------------
  free energy    TOTEN  =      -427.04915629 eV

  energy without entropy =     -427.04915629  energy(sigma->0) =     -427.04915629


--------------------------------------------------------------------------------------------------------


  average scaling for gradient   0.8723


 average (electrostatic) potential at core
  the test charge radii are     0.5770  0.5955
  (the norm of the test charge is              1.0000)
       1 -85.6707       2 -85.6703       3 -85.6705       4 -85.6711       5 -85.6698
       6 -85.6698       7 -85.6705       8 -85.6696       9 -85.6699      10 -85.6700
[...]
      21 -85.6696      22 -85.6696      23 -85.6714      24 -85.6714      25 -85.6697
      26 -85.6697      27 -85.6699      28 -85.6707      29 -85.6696      30 -85.6697
      31 -85.6708      32 -85.6704      33 -85.6698      34 -85.6698      35 -85.6699
      36 -85.6699      37 -85.6703      38 -85.6705      39 -85.6703      40 -85.6704
      41 -85.6703      42 -85.6703      43 -85.6702      44 -85.6705      45 -85.6697
      46 -85.6697      47 -85.6697      48 -85.6698      49 -85.6704      50 -85.6702
      51 -89.5973      52-120.1137      53-120.1130
 
 
 
 E-fermi :  -4.0675     XC(G=0):  -2.7302     alpha+bet : -2.1113

 Fermi energy:        -4.0674707221

 k-point     1 :       0.0000    0.0000    0.0000
  band No.  band energies     occupation 
      1     -27.3267      2.00000
      2     -26.3423      2.00000
      3     -22.1014      2.00000
      4     -21.1660      2.00000
      5     -21.1646      2.00000
      6     -21.1645      2.00000
      7     -21.1642      2.00000
      8     -21.1640      2.00000
      9     -21.1635      2.00000
     10     -19.3290      2.00000
     11     -19.3289      2.00000
     12     -19.3287      2.00000
     13     -19.3280      2.00000
     14     -19.3275      2.00000
     15     -19.3273      2.00000
     16     -18.4349      2.00000
     17     -18.4347      2.00000
     18     -18.4342      2.00000
     19     -18.4341      2.00000
     20     -18.4333      2.00000
     21     -18.4330      2.00000
     22     -16.2749      2.00000
     23     -16.2745      2.00000
     24     -16.2739      2.00000
     25     -16.2737      2.00000
     26     -16.2732      2.00000
     27     -16.2730      2.00000
     28     -15.3038      2.00000
     29     -15.3038      2.00000
     30     -15.3027      2.00000
     31     -15.3026      2.00000
     32     -15.3022      2.00000
     33     -15.3021      2.00000
     34     -13.9558      2.00000
     35     -13.9556      2.00000
     36     -13.9550      2.00000
     37     -13.9549      2.00000
     38     -13.9548      2.00000
     39     -13.9545      2.00000
     40     -12.1766      2.00000
     41     -11.5834      2.00000
     42     -11.5832      2.00000
     43     -11.5827      2.00000
     44     -11.5827      2.00000
     45     -11.5815      2.00000
     46     -11.5813      2.00000
     47     -11.4961      2.00000
     48     -11.4960      2.00000
     49     -11.4953      2.00000
     50     -11.4952      2.00000
     51     -11.4951      2.00000
     52     -11.4950      2.00000
     53     -11.0344      2.00000
     54     -10.9712      2.00000
     55     -10.9711      2.00000
     56     -10.2824      2.00000
     57     -10.1292      2.00000
     58     -10.1291      2.00000
     59     -10.1275      2.00000
     60     -10.1271      2.00000
     61     -10.1270      2.00000
     62     -10.1268      2.00000
     63      -9.1658      2.00000
     64      -9.1647      2.00000
     65      -9.1645      2.00000
     66      -9.1643      2.00000
     67      -9.1642      2.00000
     68      -9.1638      2.00000
     69      -8.8699      2.00000
     70      -8.8687      2.00000
     71      -8.8684      2.00000
     72      -8.8682      2.00000
     73      -8.8680      2.00000
     74      -8.8676      2.00000
     75      -8.8051      2.00000
     76      -8.8049      2.00000
     77      -8.8040      2.00000
     78      -8.8039      2.00000
     79      -8.8038      2.00000
     80      -8.8030      2.00000
     81      -7.4352      2.00000
     82      -7.4351      2.00000
     83      -7.2232      2.00000
     84      -7.2215      2.00000
     85      -7.2213      2.00000
     86      -7.2210      2.00000
     87      -7.2201      2.00000
     88      -7.2201      2.00000
     89      -7.0342      2.00000
     90      -7.0339      2.00000
     91      -7.0337      2.00000
     92      -7.0333      2.00000
     93      -7.0329      2.00000
     94      -7.0327      2.00000
     95      -6.1358      2.00000
     96      -6.1357      2.00000
     97      -6.1354      2.00000
     98      -6.1354      2.00000
     99      -6.1347      2.00000
    100      -6.1345      2.00000
    101      -5.7472      2.00000
    102      -5.7451      2.00000
    103      -4.1503      2.00000
    104      -4.1499      2.00000
    105      -4.1494      2.00000
    106      -4.1493      2.00000
    107      -4.1488      2.00000
    108      -4.1488      2.00000
    109      -1.3552      0.00000
    110      -1.3550      0.00000
    111      -1.3547      0.00000
    112      -1.3546      0.00000
    113      -1.3539      0.00000
    114      -1.3536      0.00000
    115       0.2192      0.00000
    116       0.4682      0.00000
    117       0.5014      0.00000
    118       0.5016      0.00000
    119       0.5019      0.00000
    120       0.5020      0.00000
    121       0.5023      0.00000
    122       0.5034      0.00000
    123       1.0366      0.00000
    124       1.1060      0.00000
    125       1.4999      0.00000
    126       1.5115      0.00000
    127       1.5130      0.00000
    128       1.5152      0.00000
    129       1.5174      0.00000
    130       1.5192      0.00000
    131       1.8604      0.00000
    132       2.0238      0.00000
    133       2.1761      0.00000
    134       2.2494      0.00000
    135       2.3419      0.00000
    136       2.3677      0.00000


--------------------------------------------------------------------------------------------------------


 soft charge-density along one line, spin component           1
         0         1         2         3         4         5         6         7         8         9
 total charge-density along one line
 
 pseudopotential strength for first ion, spin component:           1
 12.704  21.377   0.000   0.000   0.000   0.000   0.000   0.000
 21.377  35.971   0.000   0.000   0.000   0.000   0.000   0.000
  0.000   0.000  -3.215  -0.000   0.000  -5.762  -0.000   0.000
  0.000   0.000  -0.000  -3.219  -0.000  -0.000  -5.769  -0.000
  0.000   0.000   0.000  -0.000  -3.215   0.000  -0.000  -5.762
  0.000   0.000  -5.762  -0.000   0.000 -10.304  -0.000   0.000
  0.000   0.000  -0.000  -5.769  -0.000  -0.000 -10.317  -0.000
  0.000   0.000   0.000  -0.000  -5.762   0.000  -0.000 -10.304
 total augmentation occupancy for first ion, spin component:           1
  7.415  -2.550  -0.000  -0.002  -0.000   0.000   0.001   0.000
 -2.550   0.916   0.000   0.001   0.000  -0.000  -0.000  -0.000
 -0.000   0.000   6.889  -0.007   0.000  -2.287   0.003  -0.000
 -0.002   0.001  -0.007   2.993  -0.000   0.003  -0.763   0.000
 -0.000   0.000   0.000  -0.000   6.889  -0.000   0.000  -2.287
  0.000  -0.000  -2.287   0.003  -0.000   0.775  -0.001   0.000
  0.001  -0.000   0.003  -0.763   0.000  -0.001   0.202  -0.000
  0.000  -0.000  -0.000   0.000  -2.287   0.000  -0.000   0.775


------------------------ aborting loop because EDIFF is reached ----------------------------------------


    FORLOC:  cpu time    0.0507: real time    0.0512
    FORNL :  cpu time    0.6756: real time    0.6794
    FORCOR:  cpu time    3.1967: real time    3.2214
    OFIELD:  cpu time    0.0014: real time    0.0014

 VOLUME and BASIS-vectors are now :
 -----------------------------------------------------------------------------
  energy-cutoff  :     1000.00
  volume of cell :     2631.08
      direct lattice vectors                 reciprocal lattice vectors
    12.325000000  0.000000000  0.000000000     0.081135903  0.046843835  0.000000000
    -6.162500000 10.673763102  0.000000000     0.000000000  0.093687670  0.000000000
     0.000000000  0.000000000 20.000000000     0.000000000  0.000000000  0.050000000

  length of vectors
    12.325000000 12.325000000 20.000000000     0.093687670  0.093687670  0.050000000


 FORCES acting on ions:
    Electron-Ion                     Ewald-Force                    Non-Local-Force
 -----------------------------------------------------------------------------------------------
   0.514E+00 0.458E+00 0.186E+01   -.515E+00 -.460E+00 -.187E+01   0.413E-02 -.588E-03 0.564E-02
   0.697E+00 0.404E+00 0.254E+01   -.699E+00 -.402E+00 -.253E+01   0.246E-02 -.287E-02 -.583E-02
   0.280E+00 0.752E+00 0.220E+01   -.281E+00 -.752E+00 -.221E+01   -.124E-03 0.111E-01 -.236E-02
   0.349E+00 0.502E+00 0.384E+01   -.347E+00 -.501E+00 -.383E+01   0.112E-01 0.666E-03 -.173E-01
   0.585E+00 0.160E+00 0.233E+01   -.584E+00 -.161E+00 -.234E+01   -.912E-03 -.502E-02 0.429E-02
   0.598E+00 -.141E+00 0.250E+01   -.600E+00 0.142E+00 -.250E+01   -.639E-02 0.358E-02 -.135E-02
   0.652E+00 0.315E+00 0.412E+01   -.653E+00 -.316E+00 -.411E+01   0.111E-01 -.187E-01 -.780E-02
   0.688E+00 -.201E+00 0.528E+01   -.692E+00 0.203E+00 -.526E+01   -.779E-02 -.482E-02 -.663E-02
   -.318E+00 0.771E+00 0.268E+01   0.321E+00 -.774E+00 -.268E+01   0.542E-03 -.134E-01 -.491E-02
   -.377E+00 0.345E+00 0.427E+01   0.377E+00 -.345E+00 -.426E+01   -.250E-01 0.143E-01 0.679E-03
   0.150E+00 -.161E+00 0.194E+01   -.147E+00 0.160E+00 -.194E+01   0.403E-02 -.276E-02 0.155E-02
   0.160E+00 -.131E+00 0.187E+01   -.160E+00 0.132E+00 -.187E+01   -.625E-02 0.319E-02 0.729E-02
   0.157E+00 -.519E+00 0.589E+01   -.156E+00 0.520E+00 -.586E+01   0.257E-01 -.702E-02 -.428E-02
   0.106E+00 -.840E+00 0.385E+01   -.110E+00 0.843E+00 -.384E+01   0.305E-02 0.724E-02 -.161E-01
   -.568E+00 0.337E+00 0.200E+01   0.571E+00 -.339E+00 -.200E+01   0.753E-02 -.411E-02 0.890E-02
   -.696E+00 0.177E+00 0.197E+01   0.695E+00 -.177E+00 -.197E+01   -.114E-02 0.484E-02 -.357E-02
   -.988E-01 -.420E-01 0.148E+01   0.101E+00 0.404E-01 -.149E+01   0.349E-03 0.130E-03 0.254E-02
   0.494E-01 0.344E+00 0.147E+01   -.492E-01 -.344E+00 -.147E+01   -.255E-02 0.129E-02 0.931E-02
   -.150E+00 -.790E+00 0.278E+01   0.150E+00 0.792E+00 -.278E+01   0.549E-02 -.124E-02 -.144E-03
   -.933E-01 -.497E+00 0.203E+01   0.907E-01 0.497E+00 -.203E+01   -.498E-03 -.630E-03 -.341E-03
   0.759E+00 -.313E+00 0.343E+01   -.759E+00 0.313E+00 -.342E+01   -.218E-02 -.181E-02 -.152E-01
   0.557E+00 -.438E+00 0.289E+01   -.560E+00 0.439E+00 -.289E+01   -.692E-02 0.540E-02 -.429E-03
   -.112E+00 0.193E+00 0.543E+01   0.108E+00 -.191E+00 -.541E+01   -.100E-01 0.102E-01 -.258E-02
   -.182E+00 -.320E+00 0.545E+01   0.184E+00 0.318E+00 -.543E+01   0.118E-01 -.143E-01 -.138E-01
   0.296E+00 -.102E+00 0.203E+01   -.294E+00 0.101E+00 -.203E+01   0.388E-02 -.276E-02 -.142E-02
   0.977E-01 0.256E+00 0.183E+01   -.981E-01 -.255E+00 -.183E+01   -.464E-02 0.305E-02 0.703E-02
   -.813E+00 0.476E-01 0.297E+01   0.817E+00 -.495E-01 -.297E+01   0.126E-01 0.740E-02 -.266E-02
   -.728E+00 -.322E+00 0.247E+01   0.729E+00 0.322E+00 -.247E+01   -.788E-02 0.884E-02 -.187E-03
   0.287E+00 -.621E+00 0.293E+01   -.286E+00 0.621E+00 -.293E+01   0.380E-02 0.243E-02 -.535E-02
   0.284E-01 -.268E+00 0.218E+01   -.304E-01 0.270E+00 -.218E+01   -.496E-02 0.233E-02 -.523E-03
   -.515E+00 -.508E+00 0.314E+01   0.513E+00 0.509E+00 -.314E+01   -.114E-01 -.770E-02 -.148E-01
   -.389E+00 -.762E+00 0.241E+01   0.390E+00 0.761E+00 -.242E+01   0.538E-03 -.506E-03 0.738E-03
   0.199E-01 0.182E+00 0.174E+01   -.195E-01 -.183E+00 -.175E+01   0.461E-02 -.444E-02 0.817E-02
   0.897E-01 0.147E+00 0.179E+01   -.925E-01 -.146E+00 -.179E+01   -.240E-02 0.468E-02 0.292E-03
   -.374E+00 0.719E-01 0.181E+01   0.377E+00 -.728E-01 -.182E+01   0.434E-02 -.252E-02 0.740E-02
   -.326E+00 -.161E+00 0.178E+01   0.325E+00 0.161E+00 -.178E+01   -.335E-02 0.212E-02 0.492E-02
   -.597E+00 -.342E+00 0.176E+01   0.599E+00 0.340E+00 -.176E+01   -.147E-03 0.860E-03 0.346E-02
   -.403E+00 -.330E+00 0.162E+01   0.404E+00 0.330E+00 -.163E+01   -.336E-02 0.122E-02 0.879E-02
   -.370E+00 -.466E+00 0.170E+01   0.370E+00 0.467E+00 -.170E+01   -.258E-02 0.411E-03 0.402E-02
   -.510E-01 -.139E+00 0.158E+01   0.521E-01 0.138E+00 -.159E+01   0.171E-02 0.778E-03 0.681E-02
   0.147E+00 0.353E+00 0.146E+01   -.148E+00 -.353E+00 -.147E+01   -.382E-02 0.138E-02 0.636E-02
   0.434E+00 0.629E+00 0.170E+01   -.433E+00 -.630E+00 -.171E+01   -.106E-02 -.113E-02 0.660E-02
   0.585E-01 0.578E+00 0.154E+01   -.558E-01 -.580E+00 -.154E+01   0.343E-03 0.158E-03 0.276E-02
   0.160E-01 0.811E+00 0.203E+01   -.156E-01 -.812E+00 -.204E+01   -.747E-02 0.117E-02 0.471E-02
   -.118E+00 0.214E+00 0.191E+01   0.119E+00 -.215E+00 -.192E+01   0.425E-02 -.321E-02 0.323E-02
   -.387E+00 0.515E+00 0.203E+01   0.386E+00 -.515E+00 -.203E+01   -.552E-02 -.213E-03 0.113E-03
   -.136E+00 -.257E+00 0.206E+01   0.136E+00 0.257E+00 -.206E+01   0.570E-02 -.116E-02 0.713E-02
   -.243E+00 0.821E-01 0.171E+01   0.241E+00 -.814E-01 -.171E+01   -.377E-02 0.323E-02 -.138E-02
   0.167E-01 -.154E+00 0.170E+01   -.167E-01 0.154E+00 -.171E+01   0.384E-02 -.294E-02 0.565E-02
   0.249E+00 0.181E+00 0.166E+01   -.251E+00 -.180E+00 -.166E+01   -.813E-03 0.184E-02 0.348E-02
   -.606E-02 0.315E-01 -.304E+02   0.169E-02 -.277E-01 0.305E+02   -.278E-02 0.196E-02 -.156E-02
   -.229E+03 0.156E+03 -.573E+02   0.279E+03 -.190E+03 0.607E+02   -.512E+02 0.348E+02 -.343E+01
   0.229E+03 -.156E+03 -.376E+02   -.279E+03 0.190E+03 0.345E+02   0.512E+02 -.348E+02 0.309E+01
 -----------------------------------------------------------------------------------------------
   -.755E-02 0.140E-01 0.341E+00   0.000E+00 0.568E-13 -.426E-13   0.761E-02 -.139E-01 -.341E+00
 
 
 POSITION                                       TOTAL-FORCE (eV/Angst)
 -----------------------------------------------------------------------------------
     11.98348      0.00342      0.01417         0.003261     -0.001708     -0.001029
     -0.34154      1.42665      0.01100        -0.000571     -0.000042     -0.003366
      2.12355      0.00315      0.01249        -0.001794      0.010946     -0.006368
      2.12326      1.42653      0.00641         0.013618      0.001304     -0.008393
     10.75099      2.13819      0.01213         0.000455     -0.005775     -0.000103
     -1.57382      3.56123      0.01110        -0.009001      0.004711     -0.001408
      0.89078      2.13854      0.00548         0.009768     -0.019250      0.002291
      0.89099      3.56147      0.00181        -0.011706     -0.002524      0.011539
      4.58864      0.00346      0.01135         0.003571     -0.015722     -0.003513
      4.58894      1.42623      0.00646        -0.023791      0.013448      0.013567
      9.51854      4.27281      0.01369         0.006539     -0.003093      0.000154
     -2.80632      5.69591      0.01434        -0.006606      0.003430      0.000681
      2.12300      4.27302      0.00000         0.025320     -0.005184      0.020060
      2.12335      5.69594      0.00581        -0.000492      0.009049     -0.002650
      7.05344      0.00333      0.01399         0.009376     -0.005279     -0.000411
      7.05353      1.42635      0.01368        -0.001802      0.005002     -0.003730
      8.28610      6.40752      0.01601         0.002867     -0.001454     -0.000846
     -4.03885      7.83070      0.01636        -0.002252      0.000891     -0.000147
      3.35586      6.40753      0.01007         0.005624      0.000484     -0.001227
      3.35599      7.83072      0.01320        -0.003148     -0.000024     -0.000704
     -0.34146      4.27290      0.00723        -0.001757     -0.001523     -0.004427
     -0.34138      5.69591      0.00946        -0.009186      0.006547     -0.001051
      3.35624      2.13791      0.00222        -0.013777      0.012086      0.015548
      3.35573      3.56155      0.00139         0.013774     -0.016127      0.008150
     -1.57395      6.40758      0.01311         0.005346     -0.003949     -0.000615
     -1.57385      7.83068      0.01438        -0.004909      0.003811     -0.000020
      5.82093      2.13784      0.01033         0.015913      0.005206     -0.002985
      5.82114      3.56097      0.01156        -0.006509      0.008656     -0.003662
      0.89092      6.40755      0.00907         0.004680      0.002266     -0.002194
      0.89106      7.83068      0.01235        -0.006824      0.003927      0.000335
      4.58871      4.27293      0.00850        -0.013143     -0.006549     -0.010809
      4.58852      5.69606      0.01149         0.002021     -0.001318     -0.003967
      9.51845      0.00337      0.01490         0.004829     -0.004696      0.000104
      9.51855      1.42644      0.01438        -0.005146      0.005407     -0.000338
      8.28593      2.13803      0.01453         0.006781     -0.003378      0.000550
      8.28613      3.56115      0.01464        -0.004423      0.002245     -0.000090
      7.05356      4.27269      0.01457         0.002529     -0.001108     -0.000698
      7.05362      5.69588      0.01553        -0.002534      0.001558     -0.000140
      5.82112      6.40755      0.01489        -0.003028      0.001575     -0.000115
      5.82102      7.83073      0.01579         0.002747      0.000234     -0.000349
      7.05363      8.54227      0.01631        -0.004692      0.001338      0.001010
     -5.27149      9.96549      0.01495         0.000252     -0.001997     -0.002198
     -2.80638      8.54234      0.01558         0.003093     -0.001308     -0.001232
     -2.80627      9.96553      0.01362        -0.006923     -0.000021     -0.003763
     -0.34149      8.54239      0.01378         0.005784     -0.004935      0.000196
     -0.34138      9.96550      0.01354        -0.005983     -0.000007     -0.001229
      2.12343      8.54232      0.01336         0.005938     -0.001555      0.000688
      2.12354      9.96544      0.01469        -0.005139      0.003824     -0.001883
      4.58846      8.54235      0.01505         0.003744     -0.002805      0.000954
      4.58853      9.96550      0.01517        -0.002718      0.003350      0.000081
      3.04930      2.68154      9.43874        -0.007011      0.005703      0.034050
      4.02070      2.02068      9.50316        -0.593934      0.403720     -0.055178
      2.07767      3.34267      9.37929         0.600974     -0.409387      0.020882
 -----------------------------------------------------------------------------------
    total drift:                                0.000055      0.000059     -0.000368


--------------------------------------------------------------------------------------------------------



  FREE ENERGIE OF THE ION-ELECTRON SYSTEM (eV)
  ---------------------------------------------------
  free  energy   TOTEN  =      -427.04915629 eV

  energy  without entropy=     -427.04915629  energy(sigma->0) =     -427.04915629
 


--------------------------------------------------------------------------------------------------------


    POTLOK:  cpu time    3.1903: real time    3.2145


--------------------------------------------------------------------------------------------------------


 writing wavefunctions
     LOOP+:  cpu time  213.8217: real time  216.2784
    4ORBIT:  cpu time    0.0000: real time    0.0000

 total amount of memory used by VASP MPI-rank0    85439. kBytes
=======================================================================

   base      :      30000. kBytes
   nonl-proj :       6586. kBytes
   fftplans  :      14299. kBytes
   grid      :      23511. kBytes
   one-center:          6. kBytes
   wavefun   :      11037. kBytes
 
  
  
 General timing and accounting informations for this job:
 ========================================================
  
                  Total CPU time used (sec):      248.165
                            User time (sec):      228.815
                          System time (sec):       19.350
                         Elapsed time (sec):      252.552
  
                   Maximum memory used (kb):      685872.
                   Average memory used (kb):          N/A
  
                          Minor page faults:       371469
                          Major page faults:           99
                 Voluntary context switches:         3755
