 vasp.6.2.1 16May21 (build Nov 06 2021 14:46:37) complex                        
  
 executed on             LinuxIFC date 2025.04.16  18:45:08
 running on  112 total cores
 distrk:  each k-point on  112 cores,    1 groups
 distr:  one band on NCORE=  28 cores,    4 groups


--------------------------------------------------------------------------------------------------------


 INCAR:
   ALGO = Conjugate
   NPAR = 4
   ISMEAR = 0
   SIGMA = 0.01
   PREC = Accurate
   EDIFF = 1E-7
   ENCUT = 1000
   ISIF = 0
   GGA = MK
   LUSE_VDW = .TRUE.
   PARAM1 = 0.1234
   PARAM2 = 0.711357
   ZAB_VDW = -1.8867
   AGGAC = 0.0000
   LASPH = .TRUE.

 POTCAR:    PAW_PBE C_h 06Feb2004                 
 POTCAR:    PAW_PBE O_h 06Feb2004                 
 -----------------------------------------------------------------------------
|                                                                             |
|           W    W    AA    RRRRR   N    N  II  N    N   GGGG   !!!           |
|           W    W   A  A   R    R  NN   N  II  NN   N  G    G  !!!           |
|           W    W  A    A  R    R  N N  N  II  N N  N  G       !!!           |
|           W WW W  AAAAAA  RRRRR   N  N N  II  N  N N  G  GGG   !            |
|           WW  WW  A    A  R   R   N   NN  II  N   NN  G    G                |
|           W    W  A    A  R    R  N    N  II  N    N   GGGG   !!!           |
|                                                                             |
|     For optimal performance we recommend to set                             |
|       NCORE = 2 up to number-of-cores-per-socket                            |
|     NCORE specifies how many cores store one orbital (NPAR=cpu/NCORE).      |
|     This setting can greatly improve the performance of VASP for DFT.       |
|     The default, NCORE=1 might be grossly inefficient on modern             |
|     multi-core architectures or massively parallel machines. Do your        |
|     own testing! More info at https://www.vasp.at/wiki/index.php/NCORE      |
|     Unfortunately you need to use the default for GW and RPA                |
|     calculations (for HF NCORE is supported but not extensively tested      |
|     yet).                                                                   |
|                                                                             |
 -----------------------------------------------------------------------------

 -----------------------------------------------------------------------------
|                                                                             |
|               ----> ADVICE to this user running VASP <----                  |
|                                                                             |
|     You have switched on vdW-DFT.                                           |
|     This routine was written and supplied by Jiri Klimes. We recommend      |
|     that you carefully read and cite the following publications:            |
|       J. Klimes, D.R. Bowler, A. Michelides                                 |
|          J. Phys.: Cond Matt. 22 022201 (2010)                              |
|       J. Klimes, D.R. Bowler, A. Michelides                                 |
|          Phys. Rev. B. 83, 195131 (2011)                                    |
|     and references therein.                                                 |
|                                                                             |
 -----------------------------------------------------------------------------

 POTCAR:    PAW_PBE C_h 06Feb2004                 
   VRHFIN =C: s2p2                                                                                  
   LEXCH  = PE                                                                                      
   EATOM  =   147.1560 eV,   10.8157 Ry                                                             
                                                                                                    
   TITEL  = PAW_PBE C_h 06Feb2004                                                                   
   LULTRA =        F    use ultrasoft PP ?                                                          
   IUNSCR =        1    unscreen: 0-lin 1-nonlin 2-no                                               
   RPACOR =    0.800    partial core radius                                                         
   POMASS =   12.011; ZVAL   =    4.000    mass and valenz                                          
   RCORE  =    1.100    outmost cutoff radius                                                       
   RWIGS  =    1.630; RWIGS  =    0.863    wigner-seitz radius (au A)                               
   ENMAX  =  700.000; ENMIN  =  500.000 eV                                                          
   ICORE  =        2    local potential                                                             
   LCOR   =        T    correct aug charges                                                         
   LPAW   =        T    paw PP                                                                      
   EAUG   =  946.768                                                                                
   DEXC   =    0.000                                                                                
   RMAX   =    1.128    core radius for proj-oper                                                   
   RAUG   =    1.300    factor for augmentation sphere                                              
   RDEP   =    1.162    radius for radial grids                                                     
   RDEPT  =    1.088    core radius for aug-charge                                                  
                                                                                                    
   Atomic configuration                                                                             
    4 entries                                                                                       
     n  l   j            E        occ.                                                              
     1  0  0.50      -273.3789   2.0000                                                             
     2  0  0.50       -13.7508   2.0000                                                             
     2  1  0.50        -5.2854   2.0000                                                             
     3  2  1.50        -5.4423   0.0000                                                             
   Description                                                                                      
     l       E           TYP  RCUT    TYP  RCUT                                                     
     0    -13.7508458     23  1.100                                                                 
     0     -8.2022199     23  1.100                                                                 
     1     -5.2854383     23  1.100                                                                 
     1      1.1560700     23  1.100                                                                 
     2     -5.4423304      7  1.100                                                                 
  local pseudopotential read in
  partial core-charges read in
  partial kinetic energy density read in
  atomic valenz-charges read in
  non local Contribution for L=           0  read in
    real space projection operators read in
  non local Contribution for L=           0  read in
    real space projection operators read in
  non local Contribution for L=           1  read in
    real space projection operators read in
  non local Contribution for L=           1  read in
    real space projection operators read in
    PAW grid and wavefunctions read in
 
   number of l-projection  operators is LMAX  =           4
   number of lm-projection operators is LMMAX =           8
 
 POTCAR:    PAW_PBE O_h 06Feb2004                 
   VRHFIN =O: s2p4                                                                                  
   LEXCH  = PE                                                                                      
   EATOM  =   432.3788 eV,   31.7789 Ry                                                             
                                                                                                    
   TITEL  = PAW_PBE O_h 06Feb2004                                                                   
   LULTRA =        F    use ultrasoft PP ?                                                          
   IUNSCR =        1    unscreen: 0-lin 1-nonlin 2-no                                               
   RPACOR =    0.800    partial core radius                                                         
   POMASS =   16.000; ZVAL   =    6.000    mass and valenz                                          
   RCORE  =    1.100    outmost cutoff radius                                                       
   RWIGS  =    1.400; RWIGS  =    0.741    wigner-seitz radius (au A)                               
   ENMAX  =  700.000; ENMIN  =  500.000 eV                                                          
   ICORE  =        2    local potential                                                             
   LCOR   =        T    correct aug charges                                                         
   LPAW   =        T    paw PP                                                                      
   EAUG   =  888.804                                                                                
   DEXC   =    0.000                                                                                
   RMAX   =    1.128    core radius for proj-oper                                                   
   RAUG   =    1.300    factor for augmentation sphere                                              
   RDEP   =    1.125    radius for radial grids                                                     
   RDEPT  =    1.088    core radius for aug-charge                                                  
                                                                                                    
   Atomic configuration                                                                             
    4 entries                                                                                       
     n  l   j            E        occ.                                                              
     1  0  0.50      -514.6923   2.0000                                                             
     2  0  0.50       -23.9615   2.0000                                                             
     2  1  0.50        -9.0305   4.0000                                                             
     3  2  1.50        -9.5241   0.0000                                                             
   Description                                                                                      
     l       E           TYP  RCUT    TYP  RCUT                                                     
     0    -23.9615319     23  1.100                                                                 
     0    -25.3221145     23  1.100                                                                 
     1     -9.0304911     23  1.100                                                                 
     1     -5.4802209     23  1.100                                                                 
     2     -9.5240782      7  1.100                                                                 
  local pseudopotential read in
  partial core-charges read in
  partial kinetic energy density read in
  atomic valenz-charges read in
  non local Contribution for L=           0  read in
    real space projection operators read in
  non local Contribution for L=           0  read in
    real space projection operators read in
  non local Contribution for L=           1  read in
    real space projection operators read in
  non local Contribution for L=           1  read in
    real space projection operators read in
    PAW grid and wavefunctions read in
 
   number of l-projection  operators is LMAX  =           4
   number of lm-projection operators is LMMAX =           8
 
 -----------------------------------------------------------------------------
|                                                                             |
|               ----> ADVICE to this user running VASP <----                  |
|                                                                             |
|     You have a (more or less) 'large supercell' and for larger cells it     |
|     might be more efficient to use real-space projection operators.         |
|     Therefore, try LREAL= Auto in the INCAR file.                           |
|     Mind: For very accurate calculation, you might also keep the            |
|     reciprocal projection scheme (i.e. LREAL=.FALSE.).                      |
|                                                                             |
 -----------------------------------------------------------------------------

 -----------------------------------------------------------------------------
|                                                                             |
|               ----> ADVICE to this user running VASP <----                  |
|                                                                             |
|     You enforced a specific xc type in the INCAR file but a different       |
|     type was found in the POTCAR file.                                      |
|     I HOPE YOU KNOW WHAT YOU ARE DOING!                                     |
|                                                                             |
 -----------------------------------------------------------------------------

  PAW_PBE C_h 06Feb2004                 :
 energy of atom  1       EATOM= -147.1560
 kinetic energy error for atom=    0.0031 (will be added to EATOM!!)
  PAW_PBE O_h 06Feb2004                 :
 energy of atom  2       EATOM= -432.3788
 kinetic energy error for atom=    0.0171 (will be added to EATOM!!)
 
 
 POSCAR:  C  O
  positions in cartesian coordinates
  No initial velocities read in
 exchange correlation table for  LEXCH =       43
   RHO(1)=    0.500       N(1)  =     2000
   RHO(2)=  100.500       N(2)  =     4000
 


--------------------------------------------------------------------------------------------------------


 ion  position               nearest neighbor table
   1  0.972  0.000  0.001-  50 1.42   2 1.42  42 1.42
   2  0.039  0.134  0.000-   5 1.42   7 1.42   1 1.42
   3  0.172  0.000  0.000-  42 1.42  44 1.42   4 1.42
   4  0.239  0.134  0.000-   7 1.42   3 1.42  23 1.42
   5  0.972  0.200  0.000-   6 1.42   2 1.42  34 1.42
   6  0.039  0.334  0.000-   5 1.42  21 1.42  11 1.42
   7  0.172  0.200  0.000-   8 1.42   2 1.42   4 1.42
   8  0.239  0.334  0.000-  13 1.42   7 1.42  21 1.42
   9  0.372  0.000  0.000-  10 1.42  44 1.42  46 1.42
  10  0.439  0.134  0.000-  27 1.42   9 1.42  23 1.42
  11  0.972  0.400  0.001-  12 1.42  36 1.42   6 1.42
  12  0.039  0.534  0.001-  25 1.42  11 1.42  17 1.42
  13  0.372  0.400  0.000-   8 1.42  14 1.42  24 1.42
  14  0.439  0.534  0.000-  13 1.42  29 1.42  19 1.42
  15  0.572  0.000  0.001-  46 1.42  16 1.42  48 1.42
  16  0.639  0.134  0.001-  15 1.42  35 1.42  27 1.42
  17  0.972  0.600  0.001-  38 1.42  18 1.42  12 1.42
  18  0.039  0.734  0.001-  43 1.42  41 1.42  17 1.42
  19  0.572  0.600  0.000-  14 1.42  20 1.42  32 1.42
  20  0.639  0.734  0.001-  49 1.42  19 1.42  47 1.42
  21  0.172  0.400  0.000-  22 1.42   8 1.42   6 1.42
  22  0.239  0.534  0.000-  21 1.42  29 1.42  25 1.42
  23  0.372  0.200  0.000-  10 1.42   4 1.42  24 1.42
  24  0.439  0.334  0.000-  13 1.42  31 1.42  23 1.42
  25  0.172  0.600  0.001-  26 1.42  12 1.42  22 1.42
  26  0.239  0.734  0.001-  25 1.42  45 1.42  43 1.42
  27  0.572  0.200  0.000-  10 1.42  28 1.42  16 1.42
  28  0.639  0.334  0.000-  27 1.42  37 1.42  31 1.42
  29  0.372  0.600  0.000-  22 1.42  14 1.42  30 1.42
  30  0.439  0.734  0.000-  47 1.42  29 1.42  45 1.42
  31  0.572  0.400  0.000-  32 1.42  28 1.42  24 1.42
  32  0.639  0.534  0.000-  31 1.42  39 1.42  19 1.42
  33  0.772  0.000  0.001-  34 1.42  48 1.42  50 1.42
  34  0.839  0.134  0.001-  33 1.42   5 1.42  35 1.42
  35  0.772  0.200  0.001-  36 1.42  16 1.42  34 1.42
  36  0.839  0.334  0.001-  35 1.42  11 1.42  37 1.42
  37  0.772  0.400  0.001-  28 1.42  38 1.42  36 1.42
  38  0.839  0.534  0.001-  17 1.42  37 1.42  39 1.42
  39  0.772  0.600  0.001-  40 1.42  38 1.42  32 1.42
  40  0.839  0.734  0.001-  39 1.42  49 1.42  41 1.42
  41  0.972  0.800  0.001-  18 1.42  42 1.42  40 1.42
  42  0.039  0.934  0.001-   3 1.42  41 1.42   1 1.42
  43  0.172  0.800  0.001-  18 1.42  44 1.42  26 1.42
  44  0.239  0.934  0.001-   9 1.42  43 1.42   3 1.42
  45  0.372  0.800  0.001-  26 1.42  46 1.42  30 1.42
  46  0.439  0.934  0.001-  15 1.42  45 1.42   9 1.42
  47  0.572  0.800  0.001-  30 1.42  48 1.42  20 1.42
  48  0.639  0.934  0.001-  47 1.42  33 1.42  15 1.42
  49  0.772  0.800  0.001-  50 1.42  20 1.42  40 1.42
  50  0.839  0.934  0.001-  49 1.42   1 1.42  33 1.42
  51  0.373  0.251  0.189-  52 1.18  53 1.18
  52  0.421  0.189  0.191-  51 1.18
  53  0.325  0.313  0.186-  51 1.18
 
  LATTYP: Found a hexagonal cell.
 ALAT       =    12.3250000000
 C/A-ratio  =     2.0283975659
  
  Lattice vectors:
  
 A1 = (  12.3250000000,   0.0000000000,   0.0000000000)
 A2 = (  -6.1625000000,  10.6737631016,   0.0000000000)
 A3 = (   0.0000000000,   0.0000000000,  25.0000000000)


Analysis of symmetry for initial positions (statically):
=====================================================================
 Subroutine PRICEL returns:
 Original cell was already a primitive cell.
 

 Routine SETGRP: Setting up the symmetry group for a 
 hexagonal supercell.


 Subroutine GETGRP returns: Found  1 space group operations
 (whereof  1 operations were pure point group operations)
 out of a pool of 24 trial point group operations.


The static configuration has the point symmetry C_1 .


Analysis of symmetry for dynamics (positions and initial velocities):
=====================================================================
 Subroutine PRICEL returns:
 Original cell was already a primitive cell.
 

 Routine SETGRP: Setting up the symmetry group for a 
 hexagonal supercell.


 Subroutine GETGRP returns: Found  1 space group operations
 (whereof  1 operations were pure point group operations)
 out of a pool of 24 trial point group operations.


The dynamic configuration has the point symmetry C_1 .


 Subroutine INISYM returns: Found  1 space group operations
 (whereof  1 operations are pure point group operations),
 and found     1 'primitive' translations


----------------------------------------------------------------------------------------

                                     Primitive cell                                     

  volume of cell :    3288.8533

  direct lattice vectors                    reciprocal lattice vectors
    12.325000000  0.000000000  0.000000000     0.081135903  0.046843835  0.000000000
    -6.162500000 10.673763102  0.000000000     0.000000000  0.093687670  0.000000000
     0.000000000  0.000000000 25.000000000     0.000000000  0.000000000  0.040000000

  length of vectors
    12.325000000 12.325000000 25.000000000     0.093687670  0.093687670  0.040000000

  position of ions in fractional coordinates (direct lattice)
     0.972450841  0.000320818  0.000566711
     0.039118382  0.133659505  0.000440173
     0.172443627  0.000295449  0.000499628
     0.239096278  0.133647917  0.000256468
     0.972452058  0.200322012  0.000485219
     0.039128360  0.333643771  0.000444150
     0.172451764  0.200354552  0.000219167
     0.239124359  0.333665720  0.000072260
     0.372465565  0.000324403  0.000453913
     0.439137473  0.133619939  0.000258338
     0.972449824  0.400309362  0.000547611
     0.039124981  0.533636789  0.000573410
     0.372416176  0.400329481  0.000000000
     0.439099602  0.533638981  0.000232414
     0.572443676  0.000312125  0.000559580
     0.639110207  0.133631751  0.000547275
     0.972452703  0.600305653  0.000640289
     0.039124495  0.733640359  0.000654513
     0.572433471  0.600306242  0.000402895
     0.639111888  0.733641879  0.000527905
     0.172454630  0.400318228  0.000289045
     0.239120185  0.533636548  0.000378509
     0.372459750  0.200295993  0.000088997
     0.439107096  0.333673419  0.000055762
     0.172452155  0.600311506  0.000524340
     0.239123371  0.733638574  0.000575129
     0.572431082  0.200289171  0.000413296
     0.639112773  0.333618630  0.000462376
     0.372439808  0.600308022  0.000362844
     0.439116090  0.733637858  0.000494190
     0.572469358  0.400320504  0.000339918
     0.639119408  0.533650873  0.000459610
     0.772445723  0.000315427  0.000596161
     0.839116277  0.133640203  0.000575306
     0.772440513  0.200307432  0.000581033
     0.839120241  0.333635728  0.000585467
     0.772446320  0.400298367  0.000582978
     0.839118980  0.533633964  0.000621100
     0.772456143  0.600308173  0.000595712
     0.839115033  0.733643180  0.000631512
     0.972455313  0.800305582  0.000652233
     0.039114714  0.933643289  0.000598051
     0.172457971  0.800312211  0.000623372
     0.239134551  0.933647193  0.000544850
     0.372451396  0.800316674  0.000551399
     0.439124489  0.933644769  0.000541430
     0.572441101  0.800310054  0.000534535
     0.639115067  0.933638985  0.000587644
     0.772445098  0.800313187  0.000602062
     0.839116614  0.933644338  0.000606830
     0.373021009  0.251226878  0.188774862
     0.420879805  0.189313152  0.191351737
     0.325156981  0.313167186  0.186396668

  ion indices of the primitive-cell ions
   primitive index   ion index
                 1           1
                 2           2
                 3           3
                 4           4
                 5           5
                 6           6
                 7           7
                 8           8
                 9           9
                10          10
                11          11
                12          12
                13          13
                14          14
                15          15
                16          16
                17          17
                18          18
                19          19
                20          20
                21          21
                22          22
                23          23
                24          24
                25          25
                26          26
                27          27
                28          28
                29          29
                30          30
                31          31
                32          32
                33          33
                34          34
                35          35
                36          36
                37          37
                38          38
                39          39
                40          40
                41          41
                42          42
                43          43
                44          44
                45          45
                46          46
                47          47
                48          48
                49          49
                50          50
                51          51
                52          52
                53          53

----------------------------------------------------------------------------------------

 
 
 KPOINTS: auto                                    

Automatic generation of k-mesh.
 Grid dimensions read from file:
 generate k-points for:    1    1    1

 Generating k-lattice:

  Cartesian coordinates                     Fractional coordinates (reciprocal lattice)
     0.081135903  0.046843835  0.000000000     1.000000000 -0.000000000  0.000000000
     0.000000000  0.093687670  0.000000000     0.000000000  1.000000000  0.000000000
     0.000000000  0.000000000  0.040000000     0.000000000  0.000000000  1.000000000

  Length of vectors
     0.093687670  0.093687670  0.040000000

  Shift w.r.t. Gamma in fractional coordinates (k-lattice)
     0.000000000  0.000000000  0.000000000

 
 Subroutine IBZKPT returns following result:
 ===========================================
 
 Found      1 irreducible k-points:
 
 Following reciprocal coordinates:
            Coordinates               Weight
  0.000000  0.000000  0.000000      1.000000
 
 Following cartesian coordinates:
            Coordinates               Weight
  0.000000  0.000000  0.000000      1.000000
 


--------------------------------------------------------------------------------------------------------




 Dimension of arrays:
   k-points           NKPTS =      1   k-points in BZ     NKDIM =      1   number of bands    NBANDS=    136
   number of dos      NEDOS =    301   number of ions     NIONS =     53
   non local maximal  LDIM  =      4   non local SUM 2l+1 LMDIM =      8
   total plane-waves  NPLWV = ******
   max r-space proj   IRMAX =      1   max aug-charges    IRDMAX=  10008
   dimension x,y,z NGX =   128 NGY =  128 NGZ =  270
   dimension x,y,z NGXF=   256 NGYF=  256 NGZF=  540
   support grid    NGXF=   256 NGYF=  256 NGZF=  540
   ions per type =              51   2
   NGX,Y,Z   is equivalent  to a cutoff of  17.27, 17.27, 17.95 a.u.
   NGXF,Y,Z  is equivalent  to a cutoff of  34.53, 34.53, 35.91 a.u.

 SYSTEM =  unknown system                          
 POSCAR =   C  O                                   

 Startparameter for this run:
   NWRITE =      2    write-flag & timer
   PREC   = accura    normal or accurate (medium, high low for compatibility)
   ISTART =      0    job   : 0-new  1-cont  2-samecut
   ICHARG =      2    charge: 1-file 2-atom 10-const
   ISPIN  =      1    spin polarized calculation?
   LNONCOLLINEAR =      F non collinear calculations
   LSORBIT =      F    spin-orbit coupling
   INIWAV =      1    electr: 0-lowe 1-rand  2-diag
   LASPH  =      T    aspherical Exc in radial PAW
 Electronic Relaxation 1
   ENCUT  = 1000.0 eV  73.50 Ry    8.57 a.u.  31.78 31.78 64.46*2*pi/ulx,y,z
   ENINI  = 1000.0     initial cutoff
   ENAUG  =  946.8 eV  augmentation charge cutoff
   NELM   =     60;   NELMIN=  2; NELMDL= -5     # of ELM steps 
   EDIFF  = 0.1E-06   stopping-criterion for ELM
   LREAL  =      F    real-space projection
   NLSPLINE    = F    spline interpolate recip. space projectors
   LCOMPAT=      F    compatible to vasp.4.4
   GGA_COMPAT  = T    GGA compatible to vasp.4.4-vasp.4.6
   LMAXPAW     = -100 max onsite density
   LMAXMIX     =    2 max onsite mixed and CHGCAR
   VOSKOWN=      0    Vosko Wilk Nusair interpolation
   ROPT   =    0.00000   0.00000
 Ionic relaxation
   EDIFFG = 0.1E-05   stopping-criterion for IOM
   NSW    =      0    number of steps for IOM
   NBLOCK =      1;   KBLOCK =      1    inner block; outer block 
   IBRION =     -1    ionic relax: 0-MD 1-quasi-New 2-CG
   NFREE  =      0    steps in history (QN), initial steepest desc. (CG)
   ISIF   =      0    stress and relaxation
   IWAVPR =     10    prediction:  0-non 1-charg 2-wave 3-comb
   ISYM   =      2    0-nonsym 1-usesym 2-fastsym
   LCORR  =      T    Harris-Foulkes like correction to forces

   POTIM  = 0.5000    time-step for ionic-motion
   TEIN   =    0.0    initial temperature
   TEBEG  =    0.0;   TEEND  =   0.0 temperature during run
   SMASS  =  -3.00    Nose mass-parameter (am)
   estimated Nose-frequenzy (Omega)   =  0.10E-29 period in steps = 0.13E+47 mass=  -0.347E-26a.u.
   SCALEE = 1.0000    scale energy and forces
   NPACO  =    256;   APACO  = 16.0  distance and # of slots for P.C.
   PSTRESS=    0.0 pullay stress

  Mass of Ions in am
   POMASS =  12.01 16.00
  Ionic Valenz
   ZVAL   =   4.00  6.00
  Atomic Wigner-Seitz radii
   RWIGS  =  -1.00 -1.00
  virtual crystal weights 
   VCA    =   1.00  1.00
   NELECT =     216.0000    total number of electrons
   NUPDOWN=      -1.0000    fix difference up-down

 DOS related values:
   EMIN   =  10.00;   EMAX   =-10.00  energy-range for DOS
   EFERMI =   0.00
   ISMEAR =     0;   SIGMA  =   0.01  broadening in eV -4-tet -1-fermi 0-gaus

 Electronic relaxation 2 (details)
   IALGO  =     58    algorithm
   LDIAG  =      T    sub-space diagonalisation (order eigenvalues)
   LSUBROT=      F    optimize rotation matrix (better conditioning)
   TURBO    =      0    0=normal 1=particle mesh
   IRESTART =      0    0=no restart 2=restart with 2 vectors
   NREBOOT  =      0    no. of reboots
   NMIN     =      0    reboot dimension
   EREF     =   0.00    reference energy to select bands
   IMIX   =      4    mixing-type and parameters
     AMIX     =   0.40;   BMIX     =  1.00
     AMIX_MAG =   1.60;   BMIX_MAG =  1.00
     AMIN     =   0.10
     WC   =   100.;   INIMIX=   1;  MIXPRE=   1;  MAXMIX= -45

 Intra band minimization:
   WEIMIN = 0.0000     energy-eigenvalue tresh-hold
   EBREAK =  0.18E-09  absolut break condition
   DEPER  =   0.30     relativ break condition  

   TIME   =   0.40     timestep for ELM

  volume/ion in A,a.u.               =      62.05       418.76
  Fermi-wavevector in a.u.,A,eV,Ry     =   0.660508  1.248179  5.935820  0.436270
  Thomas-Fermi vector in A             =   1.732977
 
 Write flags
   LWAVE        =      T    write WAVECAR
   LDOWNSAMPLE  =      F    k-point downsampling of WAVECAR
   LCHARG       =      T    write CHGCAR
   LVTOT        =      F    write LOCPOT, total local potential
   LVHAR        =      F    write LOCPOT, Hartree potential only
   LELF         =      F    write electronic localiz. function (ELF)
   LORBIT       =      0    0 simple, 1 ext, 2 COOP (PROOUT), +10 PAW based schemes


 Dipole corrections
   LMONO  =      F    monopole corrections only (constant potential shift)
   LDIPOL =      F    correct potential (dipole corrections)
   IDIPOL =      0    1-x, 2-y, 3-z, 4-all directions 
   EPSILON=  1.0000000 bulk dielectric constant

 Exchange correlation treatment:
   GGA     =    MK    GGA type
   LEXCH   =    43    internal setting for exchange type
   VOSKOWN=      0    Vosko Wilk Nusair interpolation
   LHFCALC =     F    Hartree Fock is set to
   LHFONE  =     F    Hartree Fock one center treatment
   AEXX    =    0.0000 exact exchange contribution

 vdW DFT:
   LUSE_VDW   =     T    switch on vdW DFT
   Zab_VDW    =******    correlation parameter
   PARAM1     =0.1234
   PARAM2     =0.7114
   PARAM3     =0.0000
   -- rVV10 --
   BPARAM     = 6.3000
   CPARAM     = 0.0093

 Linear response parameters
   LEPSILON=     F    determine dielectric tensor
   LRPA    =     F    only Hartree local field effects (RPA)
   LNABLA  =     F    use nabla operator in PAW spheres
   LVEL    =     F    velocity operator in full k-point grid
   LINTERFAST=   F  fast interpolation
   KINTER  =     0    interpolate to denser k-point grid
   CSHIFT  =0.1000    complex shift for real part using Kramers Kronig
   OMEGAMAX=  -1.0    maximum frequency
   DEG_THRESHOLD= 0.2000000E-02 threshold for treating states as degnerate
   RTIME   =   -0.100 relaxation time in fs
  (WPLASMAI=    0.000 imaginary part of plasma frequency in eV, 0.658/RTIME)
   DFIELD  = 0.0000000 0.0000000 0.0000000 field for delta impulse in time
 
 Orbital magnetization related:
   ORBITALMAG=     F  switch on orbital magnetization
   LCHIMAG   =     F  perturbation theory with respect to B field
   DQ        =  0.001000  dq finite difference perturbation B field
   LLRAUG    =     F  two centre corrections for induced B field



--------------------------------------------------------------------------------------------------------


 Static calculation
 charge density and potential will be updated during run
 non-spin polarized calculation
 Conjugate gradient for all bands (Freysoldt, et al. PRB 79, 241103 (2009))
 preconditioned conjugated gradient                                        
 perform sub-space diagonalisation
    before iterative eigenvector-optimisation
 modified Broyden-mixing scheme, WC =      100.0
 initial mixing is a Kerker type mixing with AMIX =  0.4000 and BMIX =      1.0000
 Hartree-type preconditioning will be used
 using additional bands           28
 reciprocal scheme for non local part
 use partial core corrections
 no Harris-corrections to forces 
 use gradient corrections 
 use of overlap-Matrix (Vanderbilt PP)
 Gauss-broadening in eV      SIGMA  =   0.01


--------------------------------------------------------------------------------------------------------


  energy-cutoff  :     1000.00
  volume of cell :     3288.85
      direct lattice vectors                 reciprocal lattice vectors
    12.325000000  0.000000000  0.000000000     0.081135903  0.046843835  0.000000000
    -6.162500000 10.673763102  0.000000000     0.000000000  0.093687670  0.000000000
     0.000000000  0.000000000 25.000000000     0.000000000  0.000000000  0.040000000

  length of vectors
    12.325000000 12.325000000 25.000000000     0.093687670  0.093687670  0.040000000


 
 k-points in units of 2pi/SCALE and weight: auto                                    
   0.00000000  0.00000000  0.00000000       1.000
 
 k-points in reciprocal lattice and weights: auto                                    
   0.00000000  0.00000000  0.00000000       1.000
 
 position of ions in fractional coordinates (direct lattice) 
   0.97245084  0.00032082  0.00056671
   0.03911838  0.13365950  0.00044017
   0.17244363  0.00029545  0.00049963
   0.23909628  0.13364792  0.00025647
   0.97245206  0.20032201  0.00048522
   0.03912836  0.33364377  0.00044415
   0.17245176  0.20035455  0.00021917
   0.23912436  0.33366572  0.00007226
   0.37246557  0.00032440  0.00045391
   0.43913747  0.13361994  0.00025834
   0.97244982  0.40030936  0.00054761
   0.03912498  0.53363679  0.00057341
   0.37241618  0.40032948  0.00000000
   0.43909960  0.53363898  0.00023241
   0.57244368  0.00031213  0.00055958
   0.63911021  0.13363175  0.00054727
   0.97245270  0.60030565  0.00064029
   0.03912449  0.73364036  0.00065451
   0.57243347  0.60030624  0.00040289
   0.63911189  0.73364188  0.00052791
   0.17245463  0.40031823  0.00028904
   0.23912018  0.53363655  0.00037851
   0.37245975  0.20029599  0.00008900
   0.43910710  0.33367342  0.00005576
   0.17245216  0.60031151  0.00052434
   0.23912337  0.73363857  0.00057513
   0.57243108  0.20028917  0.00041330
   0.63911277  0.33361863  0.00046238
   0.37243981  0.60030802  0.00036284
   0.43911609  0.73363786  0.00049419
   0.57246936  0.40032050  0.00033992
   0.63911941  0.53365087  0.00045961
   0.77244572  0.00031543  0.00059616
   0.83911628  0.13364020  0.00057531
   0.77244051  0.20030743  0.00058103
   0.83912024  0.33363573  0.00058547
   0.77244632  0.40029837  0.00058298
   0.83911898  0.53363396  0.00062110
   0.77245614  0.60030817  0.00059571
   0.83911503  0.73364318  0.00063151
   0.97245531  0.80030558  0.00065223
   0.03911471  0.93364329  0.00059805
   0.17245797  0.80031221  0.00062337
   0.23913455  0.93364719  0.00054485
   0.37245140  0.80031667  0.00055140
   0.43912449  0.93364477  0.00054143
   0.57244110  0.80031005  0.00053453
   0.63911507  0.93363899  0.00058764
   0.77244510  0.80031319  0.00060206
   0.83911661  0.93364434  0.00060683
   0.37302101  0.25122688  0.18877486
   0.42087980  0.18931315  0.19135174
   0.32515698  0.31316719  0.18639667
 
 position of ions in cartesian coordinates  (Angst):
  11.98347958  0.00342433  0.01416777
  -0.34154264  1.42664989  0.01100432
   2.12354700  0.00315355  0.01249070
   2.12325634  1.42652621  0.00641170
  10.75098721  2.13818970  0.01213047
  -1.57382270  3.56123457  0.01110375
   0.89078307  2.13853702  0.00547917
   0.89099273  3.56146885  0.00180651
   4.58863896  0.00346260  0.01134782
   4.58893648  1.42622757  0.00645846
   9.51853763  4.27280730  0.01369027
  -2.80632132  5.69591267  0.01433526
   2.12299894  4.27302204  0.00000000
   2.12335237  5.69593607  0.00581036
   7.05344483  0.00333155  0.01398950
   7.05352764  1.42635365  0.01368187
   8.28609598  6.40752033  0.01600723
  -4.03884931  7.83070339  0.01636283
   3.35585531  6.40752662  0.01007237
   3.35598594  7.83071962  0.01319763
  -0.34145776  4.27290193  0.00722612
  -0.34137895  5.69591010  0.00946273
   3.35624236  2.13791198  0.00222492
   3.35573251  3.56155103  0.00139405
  -1.57394684  6.40758280  0.01310850
  -1.57385216  7.83068434  0.01437823
   5.82093107  2.13783916  0.01033241
   5.82114012  3.56096622  0.01155939
   0.89092245  6.40754561  0.00907111
   0.89106251  7.83067670  0.01235474
   4.58870974  4.27292622  0.00849795
   4.58852320  5.69606300  0.01149026
   9.51844972  0.00336679  0.01490402
   9.51855036  1.42644387  0.01438264
   8.28593477  2.13803408  0.01452582
   8.28612680  3.56114872  0.01463668
   7.05356221  4.27268994  0.01457444
   7.05362213  5.69588251  0.01552751
   5.82112285  6.40754723  0.01489279
   5.82101669  7.83073350  0.01578780
   7.05362858  8.54227219  0.01630582
  -5.27148792  9.96548729  0.01495127
  -2.80637951  8.54234295  0.01558431
  -2.80626749  9.96552896  0.01362126
  -0.34148805  8.54239058  0.01378498
  -0.34137657  9.96550309  0.01353576
   2.12342586  8.54231992  0.01336337
   2.12354296  9.96544135  0.01469111
   4.58845581  8.54235337  0.01505154
   4.58852904  9.96549848  0.01517076
   3.04929830  2.68153618  4.71937156
   4.02070129  2.02068374  4.78379342
   2.07766701  3.34267235  4.65991669
 


--------------------------------------------------------------------------------------------------------


 k-point   1 :   0.0000 0.0000 0.0000  plane waves:  236157

 maximum and minimum number of plane-waves per node :      8440     8428

 maximum number of plane-waves:    236157
 maximum index in each direction: 
   IXMAX=   31   IYMAX=   31   IZMAX=   64
   IXMIN=  -31   IYMIN=  -31   IZMIN=  -64


 parallel 3D FFT for wavefunctions:
    minimum data exchange during FFTs selected (reduces bandwidth)
 parallel 3D FFT for charge:
    minimum data exchange during FFTs selected (reduces bandwidth)


 total amount of memory used by VASP MPI-rank0   100580. kBytes
=======================================================================

   base      :      30000. kBytes
   nonl-proj :       8229. kBytes
   fftplans  :      18352. kBytes
   grid      :      30208. kBytes
   one-center:          6. kBytes
   wavefun   :      13785. kBytes
 
     INWAV:  cpu time    0.0000: real time    0.0000
 Broyden mixing: mesh for mixing (old mesh)
   NGX = 63   NGY = 63   NGZ =129
  (NGX  =256   NGY  =256   NGZ  =540)
  gives a total of 512001 points

 initial charge density was supplied:
 charge density of overlapping atoms calculated
 number of electron     216.0000000 magnetization 
 keeping initial charge density in first step


--------------------------------------------------------------------------------------------------------


 Maximum index for augmentation-charges          471 (set IRDMAX)


--------------------------------------------------------------------------------------------------------


 First call to EWALD:  gamma=   0.119
 Maximum number of real-space cells 4x 4x 2
 Maximum number of reciprocal cells 2x 2x 4

    FEWALD:  cpu time    0.0026: real time    0.0026


--------------------------------------- Iteration      1(   1)  ---------------------------------------


vdW kernel read from vdw_kernel.bindat
  0.0000  0.2424  0.5071  0.7962  1.1119  1.4567  1.8333  2.2446  2.6937  3.1842
  3.7199  4.3049  4.9438  5.6415  6.4036  7.2358  8.1446  9.1372 10.2212 11.4050
 12.6979 14.1099 15.6519 17.3360 19.1751 21.1837 23.3773 25.7729 28.3892 31.2465
 34.3669 37.7748 41.4965 45.5611 50.0000
 
    POTLOK:  cpu time    4.5627: real time    4.6185
    SETDIJ:  cpu time    0.0559: real time    0.0561
    TRIAL :  cpu time    2.0764: real time    2.0981
    CORREC:  cpu time    0.0003: real time    0.0003
    --------------------------------------------
      LOOP:  cpu time    6.6988: real time    6.7901

 eigenvalue-minimisations  :   288
 total energy-change (2. order) : 0.2753081E+04  (-0.1020654E+05)
 number of electron     216.0000000 magnetization 
 augmentation part      216.0000000 magnetization 

 Free energy of the ion-electron system (eV)
  ---------------------------------------------------
  alpha Z        PSCENC =        47.94900195
  Ewald energy   TEWEN  =     45170.36305123
  -Hartree energ DENC   =    -51239.51742434
  -exchange      EXHF   =         0.00000000
  -V(xc)+E(xc)   XCENC  =       412.33407756
  PAW double counting   =      6548.36373666    -6261.59511771
  entropy T*S    EENTRO =        -0.00000000
  eigenvalues    EBANDS =      -345.76179254
  atomic energy  EATOM  =      8420.94593319
  ---------------------------------------------------
  free energy    TOTEN  =      2753.08146600 eV

  energy without entropy =     2753.08146600  energy(sigma->0) =     2753.08146600


--------------------------------------------------------------------------------------------------------




--------------------------------------- Iteration      1(   2)  ---------------------------------------


    TRIAL :  cpu time    2.8671: real time    2.8936
    CORREC:  cpu time    0.0001: real time    0.0003
    --------------------------------------------
      LOOP:  cpu time    2.9135: real time    2.9438

 eigenvalue-minimisations  :   448
 total energy-change (2. order) :-0.2320691E+04  (-0.2173658E+04)
 number of electron     216.0000000 magnetization 
 augmentation part      216.0000000 magnetization 

 Free energy of the ion-electron system (eV)
  ---------------------------------------------------
  alpha Z        PSCENC =        47.94900195
  Ewald energy   TEWEN  =     45170.36305123
  -Hartree energ DENC   =    -51239.51742434
  -exchange      EXHF   =         0.00000000
  -V(xc)+E(xc)   XCENC  =       412.33407756
  PAW double counting   =      6548.36373666    -6261.59511771
  entropy T*S    EENTRO =        -0.00000000
  eigenvalues    EBANDS =     -2666.45282927
  atomic energy  EATOM  =      8420.94593319
  ---------------------------------------------------
  free energy    TOTEN  =       432.39042927 eV

  energy without entropy =      432.39042927  energy(sigma->0) =      432.39042927


--------------------------------------------------------------------------------------------------------




--------------------------------------- Iteration      1(   3)  ---------------------------------------


    TRIAL :  cpu time    2.3783: real time    2.3990
    CORREC:  cpu time    0.0000: real time    0.0000
    --------------------------------------------
      LOOP:  cpu time    2.4446: real time    2.4670

 eigenvalue-minimisations  :   352
 total energy-change (2. order) :-0.8156976E+03  (-0.8015769E+03)
 number of electron     216.0000000 magnetization 
 augmentation part      216.0000000 magnetization 

 Free energy of the ion-electron system (eV)
  ---------------------------------------------------
  alpha Z        PSCENC =        47.94900195
  Ewald energy   TEWEN  =     45170.36305123
  -Hartree energ DENC   =    -51239.51742434
  -exchange      EXHF   =         0.00000000
  -V(xc)+E(xc)   XCENC  =       412.33407756
  PAW double counting   =      6548.36373666    -6261.59511771
  entropy T*S    EENTRO =        -0.00000000
  eigenvalues    EBANDS =     -3482.15038774
  atomic energy  EATOM  =      8420.94593319
  ---------------------------------------------------
  free energy    TOTEN  =      -383.30712920 eV

  energy without entropy =     -383.30712920  energy(sigma->0) =     -383.30712920


--------------------------------------------------------------------------------------------------------




--------------------------------------- Iteration      1(   4)  ---------------------------------------


    TRIAL :  cpu time    2.3347: real time    2.3552
    CORREC:  cpu time    0.0001: real time    0.0001
    --------------------------------------------
      LOOP:  cpu time    2.4051: real time    2.4293

 eigenvalue-minimisations  :   344
 total energy-change (2. order) :-0.7493007E+02  (-0.7385281E+02)
 number of electron     216.0000000 magnetization 
 augmentation part      216.0000000 magnetization 

 Free energy of the ion-electron system (eV)
  ---------------------------------------------------
  alpha Z        PSCENC =        47.94900195
  Ewald energy   TEWEN  =     45170.36305123
  -Hartree energ DENC   =    -51239.51742434
  -exchange      EXHF   =         0.00000000
  -V(xc)+E(xc)   XCENC  =       412.33407756
  PAW double counting   =      6548.36373666    -6261.59511771
  entropy T*S    EENTRO =        -0.00000000
  eigenvalues    EBANDS =     -3557.08045576
  atomic energy  EATOM  =      8420.94593319
  ---------------------------------------------------
  free energy    TOTEN  =      -458.23719722 eV

  energy without entropy =     -458.23719722  energy(sigma->0) =     -458.23719722


--------------------------------------------------------------------------------------------------------




--------------------------------------- Iteration      1(   5)  ---------------------------------------


    TRIAL :  cpu time    2.4589: real time    2.4798
    CORREC:  cpu time    0.0001: real time    0.0001
    CHARGE:  cpu time    0.1819: real time    0.1842
    --------------------------------------------
      LOOP:  cpu time    2.6706: real time    2.6949

 eigenvalue-minimisations  :   368
 total energy-change (2. order) :-0.2126855E+01  (-0.2116877E+01)
 number of electron     216.0000000 magnetization 
 augmentation part       -0.2281115 magnetization 

 Free energy of the ion-electron system (eV)
  ---------------------------------------------------
  alpha Z        PSCENC =        47.94900195
  Ewald energy   TEWEN  =     45170.36305123
  -Hartree energ DENC   =    -51239.51742434
  -exchange      EXHF   =         0.00000000
  -V(xc)+E(xc)   XCENC  =       412.33407756
  PAW double counting   =      6548.36373666    -6261.59511771
  entropy T*S    EENTRO =        -0.00000000
  eigenvalues    EBANDS =     -3559.20731041
  atomic energy  EATOM  =      8420.94593319
  ---------------------------------------------------
  free energy    TOTEN  =      -460.36405187 eV

  energy without entropy =     -460.36405187  energy(sigma->0) =     -460.36405187


--------------------------------------------------------------------------------------------------------




--------------------------------------- Iteration      1(   6)  ---------------------------------------


    POTLOK:  cpu time    4.2690: real time    4.2996
    SETDIJ:  cpu time    0.0542: real time    0.0544
    TRIAL :  cpu time    1.1629: real time    1.1739
    CORREC:  cpu time    4.7628: real time    4.8035
    CHARGE:  cpu time    0.1791: real time    0.1810
    --------------------------------------------
      LOOP:  cpu time   10.4690: real time   10.5544

 eigenvalue-minimisations  :     0
 total energy-change (2. order) : 0.5244688E+02  (-0.1637038E+02)
 number of electron     216.0000000 magnetization 
 augmentation part       -0.3272047 magnetization 

 Free energy of the ion-electron system (eV)
  ---------------------------------------------------
  alpha Z        PSCENC =        47.94900195
  Ewald energy   TEWEN  =     45170.36305123
  -Hartree energ DENC   =    -52681.01154889
  -exchange      EXHF   =         0.00000000
  -V(xc)+E(xc)   XCENC  =       460.07815983
  PAW double counting   =     80256.91909235   -79976.57432242
  entropy T*S    EENTRO =        -0.00000000
  eigenvalues    EBANDS =     -2106.58653932
  atomic energy  EATOM  =      8420.94593319
  ---------------------------------------------------
  free energy    TOTEN  =      -407.91717207 eV

  energy without entropy =     -407.91717207  energy(sigma->0) =     -407.91717207


--------------------------------------------------------------------------------------------------------




--------------------------------------- Iteration      1(   7)  ---------------------------------------


    POTLOK:  cpu time    4.2800: real time    4.3250
    SETDIJ:  cpu time    0.0544: real time    0.0546
    TRIAL :  cpu time    1.1543: real time    1.1652
    CORREC:  cpu time    4.7415: real time    4.7785
    CHARGE:  cpu time    0.1801: real time    0.1820
    --------------------------------------------
      LOOP:  cpu time   10.4908: real time   10.5897

 eigenvalue-minimisations  :     0
 total energy-change (2. order) :-0.1642204E+02  (-0.1878158E+01)
 number of electron     216.0000000 magnetization 
 augmentation part       -0.3736215 magnetization 

 Free energy of the ion-electron system (eV)
  ---------------------------------------------------
  alpha Z        PSCENC =        47.94900195
  Ewald energy   TEWEN  =     45170.36305123
  -Hartree energ DENC   =    -52159.04858075
  -exchange      EXHF   =         0.00000000
  -V(xc)+E(xc)   XCENC  =       442.69144192
  PAW double counting   =     95421.95708206   -95138.86778313
  entropy T*S    EENTRO =        -0.00000000
  eigenvalues    EBANDS =     -2630.32935380
  atomic energy  EATOM  =      8420.94593319
  ---------------------------------------------------
  free energy    TOTEN  =      -424.33920732 eV

  energy without entropy =     -424.33920732  energy(sigma->0) =     -424.33920732


--------------------------------------------------------------------------------------------------------




--------------------------------------- Iteration      1(   8)  ---------------------------------------


    POTLOK:  cpu time    4.2528: real time    4.2843
    SETDIJ:  cpu time    0.0542: real time    0.0544
    TRIAL :  cpu time    1.1554: real time    1.1666
    CORREC:  cpu time    4.7738: real time    4.8120
    CHARGE:  cpu time    0.1788: real time    0.1806
    --------------------------------------------
      LOOP:  cpu time   10.4886: real time   10.5721

 eigenvalue-minimisations  :     0
 total energy-change (2. order) :-0.1877070E+01  (-0.5241353E+00)
 number of electron     216.0000000 magnetization 
 augmentation part       -0.3923838 magnetization 

 Free energy of the ion-electron system (eV)
  ---------------------------------------------------
  alpha Z        PSCENC =        47.94900195
  Ewald energy   TEWEN  =     45170.36305123
  -Hartree energ DENC   =    -52131.64527507
  -exchange      EXHF   =         0.00000000
  -V(xc)+E(xc)   XCENC  =       442.20356491
  PAW double counting   =     99553.02915125   -99269.60347881
  entropy T*S    EENTRO =        -0.00000000
  eigenvalues    EBANDS =     -2659.45822625
  atomic energy  EATOM  =      8420.94593319
  ---------------------------------------------------
  free energy    TOTEN  =      -426.21627759 eV

  energy without entropy =     -426.21627759  energy(sigma->0) =     -426.21627759


--------------------------------------------------------------------------------------------------------




--------------------------------------- Iteration      1(   9)  ---------------------------------------


    POTLOK:  cpu time    4.2799: real time    4.3130
    SETDIJ:  cpu time    0.0541: real time    0.0543
    TRIAL :  cpu time    1.1544: real time    1.1654
    CORREC:  cpu time    4.7450: real time    4.7874
    CHARGE:  cpu time    0.1815: real time    0.1840
    --------------------------------------------
      LOOP:  cpu time   10.4827: real time   10.6197

 eigenvalue-minimisations  :     0
 total energy-change (2. order) :-0.5241368E+00  (-0.2002707E+00)
 number of electron     216.0000000 magnetization 
 augmentation part       -0.4015381 magnetization 

 Free energy of the ion-electron system (eV)
  ---------------------------------------------------
  alpha Z        PSCENC =        47.94900195
  Ewald energy   TEWEN  =     45170.36305123
  -Hartree energ DENC   =    -52146.81978738
  -exchange      EXHF   =         0.00000000
  -V(xc)+E(xc)   XCENC  =       442.39173626
  PAW double counting   =    102393.50287938  -102109.92986712
  entropy T*S    EENTRO =        -0.00000000
  eigenvalues    EBANDS =     -2645.14336194
  atomic energy  EATOM  =      8420.94593319
  ---------------------------------------------------
  free energy    TOTEN  =      -426.74041442 eV

  energy without entropy =     -426.74041442  energy(sigma->0) =     -426.74041442


--------------------------------------------------------------------------------------------------------




--------------------------------------- Iteration      1(  10)  ---------------------------------------


    POTLOK:  cpu time    4.2920: real time    4.3444
    SETDIJ:  cpu time    0.0582: real time    0.0589
    TRIAL :  cpu time    1.1819: real time    1.1931
    CORREC:  cpu time    4.7626: real time    4.7987
    CHARGE:  cpu time    0.1789: real time    0.1808
    --------------------------------------------
      LOOP:  cpu time   10.4907: real time   10.6124

 eigenvalue-minimisations  :     0
 total energy-change (2. order) :-0.1996940E+00  (-0.9514619E-01)
 number of electron     216.0000000 magnetization 
 augmentation part       -0.4021279 magnetization 

 Free energy of the ion-electron system (eV)
  ---------------------------------------------------
  alpha Z        PSCENC =        47.94900195
  Ewald energy   TEWEN  =     45170.36305123
  -Hartree energ DENC   =    -52144.10196852
  -exchange      EXHF   =         0.00000000
  -V(xc)+E(xc)   XCENC  =       442.23261238
  PAW double counting   =    103018.25023235  -102734.58351932
  entropy T*S    EENTRO =        -0.00000000
  eigenvalues    EBANDS =     -2647.99545165
  atomic energy  EATOM  =      8420.94593319
  ---------------------------------------------------
  free energy    TOTEN  =      -426.94010838 eV

  energy without entropy =     -426.94010838  energy(sigma->0) =     -426.94010838


--------------------------------------------------------------------------------------------------------




--------------------------------------- Iteration      1(  11)  ---------------------------------------


    POTLOK:  cpu time    4.2513: real time    4.2906
    SETDIJ:  cpu time    0.0541: real time    0.0543
    TRIAL :  cpu time    1.1530: real time    1.1635
    CORREC:  cpu time    4.7320: real time    4.7694
    CHARGE:  cpu time    0.1791: real time    0.1811
    --------------------------------------------
      LOOP:  cpu time   10.4221: real time   10.5146

 eigenvalue-minimisations  :     0
 total energy-change (2. order) :-0.9464946E-01  (-0.3810371E-01)
 number of electron     216.0000000 magnetization 
 augmentation part       -0.4013630 magnetization 

 Free energy of the ion-electron system (eV)
  ---------------------------------------------------
  alpha Z        PSCENC =        47.94900195
  Ewald energy   TEWEN  =     45170.36305123
  -Hartree energ DENC   =    -52136.21904188
  -exchange      EXHF   =         0.00000000
  -V(xc)+E(xc)   XCENC  =       442.11181259
  PAW double counting   =    102559.12377454  -102275.46154079
  entropy T*S    EENTRO =        -0.00000000
  eigenvalues    EBANDS =     -2655.84774866
  atomic energy  EATOM  =      8420.94593319
  ---------------------------------------------------
  free energy    TOTEN  =      -427.03475783 eV

  energy without entropy =     -427.03475783  energy(sigma->0) =     -427.03475783


--------------------------------------------------------------------------------------------------------




--------------------------------------- Iteration      1(  12)  ---------------------------------------


    POTLOK:  cpu time    4.2850: real time    4.3214
    SETDIJ:  cpu time    0.0542: real time    0.0544
    TRIAL :  cpu time    1.1543: real time    1.1650
    CORREC:  cpu time    4.7511: real time    4.7993
    CHARGE:  cpu time    0.1801: real time    0.1823
    --------------------------------------------
      LOOP:  cpu time   10.5008: real time   10.6007

 eigenvalue-minimisations  :     0
 total energy-change (2. order) :-0.3798122E-01  (-0.1166723E-01)
 number of electron     216.0000000 magnetization 
 augmentation part       -0.4010373 magnetization 

 Free energy of the ion-electron system (eV)
  ---------------------------------------------------
  alpha Z        PSCENC =        47.94900195
  Ewald energy   TEWEN  =     45170.36305123
  -Hartree energ DENC   =    -52132.73506437
  -exchange      EXHF   =         0.00000000
  -V(xc)+E(xc)   XCENC  =       442.03369991
  PAW double counting   =    102148.97603765  -101865.33969854
  entropy T*S    EENTRO =        -0.00000000
  eigenvalues    EBANDS =     -2659.26570008
  atomic energy  EATOM  =      8420.94593319
  ---------------------------------------------------
  free energy    TOTEN  =      -427.07273905 eV

  energy without entropy =     -427.07273905  energy(sigma->0) =     -427.07273905


--------------------------------------------------------------------------------------------------------




--------------------------------------- Iteration      1(  13)  ---------------------------------------


    POTLOK:  cpu time    4.2660: real time    4.3076
    SETDIJ:  cpu time    0.0541: real time    0.0543
    TRIAL :  cpu time    1.1546: real time    1.1655
    CORREC:  cpu time    4.7660: real time    4.8047
    CHARGE:  cpu time    0.1801: real time    0.1820
    --------------------------------------------
      LOOP:  cpu time   10.4611: real time   10.5653

 eigenvalue-minimisations  :     0
 total energy-change (2. order) :-0.1166188E-01  (-0.3410376E-02)
 number of electron     216.0000000 magnetization 
 augmentation part       -0.4003175 magnetization 

 Free energy of the ion-electron system (eV)
  ---------------------------------------------------
  alpha Z        PSCENC =        47.94900195
  Ewald energy   TEWEN  =     45170.36305123
  -Hartree energ DENC   =    -52132.64636958
  -exchange      EXHF   =         0.00000000
  -V(xc)+E(xc)   XCENC  =       442.02268723
  PAW double counting   =    101975.13427934  -101691.51201026
  entropy T*S    EENTRO =        -0.00000000
  eigenvalues    EBANDS =     -2659.34097403
  atomic energy  EATOM  =      8420.94593319
  ---------------------------------------------------
  free energy    TOTEN  =      -427.08440093 eV

  energy without entropy =     -427.08440093  energy(sigma->0) =     -427.08440093


--------------------------------------------------------------------------------------------------------




--------------------------------------- Iteration      1(  14)  ---------------------------------------


    POTLOK:  cpu time    4.2596: real time    4.2930
    SETDIJ:  cpu time    0.0542: real time    0.0543
    TRIAL :  cpu time    1.1539: real time    1.1644
    CORREC:  cpu time    4.7551: real time    4.7896
    CHARGE:  cpu time    0.1799: real time    0.1817
    --------------------------------------------
      LOOP:  cpu time   10.4416: real time   10.5230

 eigenvalue-minimisations  :     0
 total energy-change (2. order) :-0.3412747E-02  (-0.1217935E-02)
 number of electron     216.0000000 magnetization 
 augmentation part       -0.3999420 magnetization 

 Free energy of the ion-electron system (eV)
  ---------------------------------------------------
  alpha Z        PSCENC =        47.94900195
  Ewald energy   TEWEN  =     45170.36305123
  -Hartree energ DENC   =    -52132.69822295
  -exchange      EXHF   =         0.00000000
  -V(xc)+E(xc)   XCENC  =       442.02216191
  PAW double counting   =    101949.74882574  -101666.13221229
  entropy T*S    EENTRO =        -0.00000000
  eigenvalues    EBANDS =     -2659.28635245
  atomic energy  EATOM  =      8420.94593319
  ---------------------------------------------------
  free energy    TOTEN  =      -427.08781368 eV

  energy without entropy =     -427.08781368  energy(sigma->0) =     -427.08781368


--------------------------------------------------------------------------------------------------------




--------------------------------------- Iteration      1(  15)  ---------------------------------------


    POTLOK:  cpu time    4.2708: real time    4.3017
    SETDIJ:  cpu time    0.0541: real time    0.0543
    TRIAL :  cpu time    1.1524: real time    1.1630
    CORREC:  cpu time    4.7519: real time    4.7947
    CHARGE:  cpu time    0.1796: real time    0.1815
    --------------------------------------------
      LOOP:  cpu time   10.4356: real time   10.5485

 eigenvalue-minimisations  :     0
 total energy-change (2. order) :-0.1220970E-02  (-0.6036334E-03)
 number of electron     216.0000000 magnetization 
 augmentation part       -0.3995117 magnetization 

 Free energy of the ion-electron system (eV)
  ---------------------------------------------------
  alpha Z        PSCENC =        47.94900195
  Ewald energy   TEWEN  =     45170.36305123
  -Hartree energ DENC   =    -52132.35601777
  -exchange      EXHF   =         0.00000000
  -V(xc)+E(xc)   XCENC  =       442.00449523
  PAW double counting   =    101938.34227727  -101654.72437615
  entropy T*S    EENTRO =        -0.00000000
  eigenvalues    EBANDS =     -2659.61339960
  atomic energy  EATOM  =      8420.94593319
  ---------------------------------------------------
  free energy    TOTEN  =      -427.08903465 eV

  energy without entropy =     -427.08903465  energy(sigma->0) =     -427.08903465


--------------------------------------------------------------------------------------------------------




--------------------------------------- Iteration      1(  16)  ---------------------------------------


    POTLOK:  cpu time    4.2476: real time    4.2797
    SETDIJ:  cpu time    0.0543: real time    0.0544
    TRIAL :  cpu time    1.1491: real time    1.1613
    CORREC:  cpu time    4.7434: real time    4.7817
    CHARGE:  cpu time    0.1797: real time    0.1815
    --------------------------------------------
      LOOP:  cpu time   10.4182: real time   10.5372

 eigenvalue-minimisations  :     0
 total energy-change (2. order) :-0.6056666E-03  (-0.3134887E-03)
 number of electron     216.0000000 magnetization 
 augmentation part       -0.3993608 magnetization 

 Free energy of the ion-electron system (eV)
  ---------------------------------------------------
  alpha Z        PSCENC =        47.94900195
  Ewald energy   TEWEN  =     45170.36305123
  -Hartree energ DENC   =    -52132.73827817
  -exchange      EXHF   =         0.00000000
  -V(xc)+E(xc)   XCENC  =       442.01761409
  PAW double counting   =    101882.72234080  -101599.10611367
  entropy T*S    EENTRO =        -0.00000000
  eigenvalues    EBANDS =     -2659.24318973
  atomic energy  EATOM  =      8420.94593319
  ---------------------------------------------------
  free energy    TOTEN  =      -427.08964031 eV

  energy without entropy =     -427.08964031  energy(sigma->0) =     -427.08964031


--------------------------------------------------------------------------------------------------------




--------------------------------------- Iteration      1(  17)  ---------------------------------------


    POTLOK:  cpu time    4.2830: real time    4.3153
    SETDIJ:  cpu time    0.0542: real time    0.0544
    TRIAL :  cpu time    1.1526: real time    1.1638
    CORREC:  cpu time    4.7244: real time    4.7624
    CHARGE:  cpu time    0.1798: real time    0.1817
    --------------------------------------------
      LOOP:  cpu time   10.4299: real time   10.5487

 eigenvalue-minimisations  :     0
 total energy-change (2. order) :-0.3144651E-03  (-0.1264025E-03)
 number of electron     216.0000000 magnetization 
 augmentation part       -0.3994440 magnetization 

 Free energy of the ion-electron system (eV)
  ---------------------------------------------------
  alpha Z        PSCENC =        47.94900195
  Ewald energy   TEWEN  =     45170.36305123
  -Hartree energ DENC   =    -52132.96166901
  -exchange      EXHF   =         0.00000000
  -V(xc)+E(xc)   XCENC  =       442.02247688
  PAW double counting   =    101828.45606885  -101544.83934593
  entropy T*S    EENTRO =        -0.00000000
  eigenvalues    EBANDS =     -2659.02547194
  atomic energy  EATOM  =      8420.94593319
  ---------------------------------------------------
  free energy    TOTEN  =      -427.08995478 eV

  energy without entropy =     -427.08995478  energy(sigma->0) =     -427.08995478


--------------------------------------------------------------------------------------------------------




--------------------------------------- Iteration      1(  18)  ---------------------------------------


    POTLOK:  cpu time    4.3195: real time    4.3555
    SETDIJ:  cpu time    0.0560: real time    0.0568
    TRIAL :  cpu time    1.2805: real time    1.2988
    CORREC:  cpu time    4.7610: real time    4.7974
    CHARGE:  cpu time    0.1796: real time    0.1816
    --------------------------------------------
      LOOP:  cpu time   10.6564: real time   10.7507

 eigenvalue-minimisations  :     0
 total energy-change (2. order) :-0.1263827E-03  (-0.4689502E-04)
 number of electron     216.0000000 magnetization 
 augmentation part       -0.3996029 magnetization 

 Free energy of the ion-electron system (eV)
  ---------------------------------------------------
  alpha Z        PSCENC =        47.94900195
  Ewald energy   TEWEN  =     45170.36305123
  -Hartree energ DENC   =    -52133.00798822
  -exchange      EXHF   =         0.00000000
  -V(xc)+E(xc)   XCENC  =       442.02363738
  PAW double counting   =    101820.73907189  -101537.12141477
  entropy T*S    EENTRO =        -0.00000000
  eigenvalues    EBANDS =     -2658.98137380
  atomic energy  EATOM  =      8420.94593319
  ---------------------------------------------------
  free energy    TOTEN  =      -427.09008116 eV

  energy without entropy =     -427.09008116  energy(sigma->0) =     -427.09008116


--------------------------------------------------------------------------------------------------------




--------------------------------------- Iteration      1(  19)  ---------------------------------------


    POTLOK:  cpu time    4.2547: real time    4.2855
    SETDIJ:  cpu time    0.0541: real time    0.0543
    TRIAL :  cpu time    1.1541: real time    1.1647
    CORREC:  cpu time    4.7540: real time    4.7919
    CHARGE:  cpu time    0.1796: real time    0.1817
    --------------------------------------------
      LOOP:  cpu time   10.4570: real time   10.5419

 eigenvalue-minimisations  :     0
 total energy-change (2. order) :-0.4656936E-04  (-0.1870677E-04)
 number of electron     216.0000000 magnetization 
 augmentation part       -0.3996905 magnetization 

 Free energy of the ion-electron system (eV)
  ---------------------------------------------------
  alpha Z        PSCENC =        47.94900195
  Ewald energy   TEWEN  =     45170.36305123
  -Hartree energ DENC   =    -52133.01100957
  -exchange      EXHF   =         0.00000000
  -V(xc)+E(xc)   XCENC  =       442.02337662
  PAW double counting   =    101835.53021981  -101551.91183325
  entropy T*S    EENTRO =        -0.00000000
  eigenvalues    EBANDS =     -2658.97886772
  atomic energy  EATOM  =      8420.94593319
  ---------------------------------------------------
  free energy    TOTEN  =      -427.09012773 eV

  energy without entropy =     -427.09012773  energy(sigma->0) =     -427.09012773


--------------------------------------------------------------------------------------------------------




--------------------------------------- Iteration      1(  20)  ---------------------------------------


    POTLOK:  cpu time    4.3222: real time    4.3546
    SETDIJ:  cpu time    0.0542: real time    0.0544
    TRIAL :  cpu time    1.1531: real time    1.1637
    CORREC:  cpu time    4.7382: real time    4.7783
    CHARGE:  cpu time    0.1797: real time    0.1817
    --------------------------------------------
      LOOP:  cpu time   10.4755: real time   10.5628

 eigenvalue-minimisations  :     0
 total energy-change (2. order) :-0.1832440E-04  (-0.8635177E-05)
 number of electron     216.0000000 magnetization 
 augmentation part       -0.3997128 magnetization 

 Free energy of the ion-electron system (eV)
  ---------------------------------------------------
  alpha Z        PSCENC =        47.94900195
  Ewald energy   TEWEN  =     45170.36305123
  -Hartree energ DENC   =    -52133.02088105
  -exchange      EXHF   =         0.00000000
  -V(xc)+E(xc)   XCENC  =       442.02367411
  PAW double counting   =    101848.41065653  -101564.79220692
  entropy T*S    EENTRO =        -0.00000000
  eigenvalues    EBANDS =     -2658.96937509
  atomic energy  EATOM  =      8420.94593319
  ---------------------------------------------------
  free energy    TOTEN  =      -427.09014605 eV

  energy without entropy =     -427.09014605  energy(sigma->0) =     -427.09014605


--------------------------------------------------------------------------------------------------------




--------------------------------------- Iteration      1(  21)  ---------------------------------------


    POTLOK:  cpu time    4.2534: real time    4.2977
    SETDIJ:  cpu time    0.0542: real time    0.0543
    TRIAL :  cpu time    1.1573: real time    1.1678
    CORREC:  cpu time    4.7649: real time    4.8015
    CHARGE:  cpu time    0.1796: real time    0.1815
    --------------------------------------------
      LOOP:  cpu time   10.4690: real time   10.5649

 eigenvalue-minimisations  :     0
 total energy-change (2. order) :-0.8459683E-05  (-0.3928444E-05)
 number of electron     216.0000000 magnetization 
 augmentation part       -0.3996971 magnetization 

 Free energy of the ion-electron system (eV)
  ---------------------------------------------------
  alpha Z        PSCENC =        47.94900195
  Ewald energy   TEWEN  =     45170.36305123
  -Hartree energ DENC   =    -52132.99681300
  -exchange      EXHF   =         0.00000000
  -V(xc)+E(xc)   XCENC  =       442.02283887
  PAW double counting   =    101852.63551548  -101569.01717128
  entropy T*S    EENTRO =        -0.00000000
  eigenvalues    EBANDS =     -2658.99251095
  atomic energy  EATOM  =      8420.94593319
  ---------------------------------------------------
  free energy    TOTEN  =      -427.09015451 eV

  energy without entropy =     -427.09015451  energy(sigma->0) =     -427.09015451


--------------------------------------------------------------------------------------------------------




--------------------------------------- Iteration      1(  22)  ---------------------------------------


    POTLOK:  cpu time    4.2661: real time    4.2972
    SETDIJ:  cpu time    0.0541: real time    0.0543
    TRIAL :  cpu time    1.1560: real time    1.1666
    CORREC:  cpu time    4.7294: real time    4.7658
    CHARGE:  cpu time    0.1796: real time    0.1816
    --------------------------------------------
      LOOP:  cpu time   10.4483: real time   10.5432

 eigenvalue-minimisations  :     0
 total energy-change (2. order) :-0.3912908E-05  (-0.1629392E-05)
 number of electron     216.0000000 magnetization 
 augmentation part       -0.3996829 magnetization 

 Free energy of the ion-electron system (eV)
  ---------------------------------------------------
  alpha Z        PSCENC =        47.94900195
  Ewald energy   TEWEN  =     45170.36305123
  -Hartree energ DENC   =    -52132.98156543
  -exchange      EXHF   =         0.00000000
  -V(xc)+E(xc)   XCENC  =       442.02242470
  PAW double counting   =    101851.32442446  -101567.70622873
  entropy T*S    EENTRO =        -0.00000000
  eigenvalues    EBANDS =     -2659.00719980
  atomic energy  EATOM  =      8420.94593319
  ---------------------------------------------------
  free energy    TOTEN  =      -427.09015843 eV

  energy without entropy =     -427.09015843  energy(sigma->0) =     -427.09015843


--------------------------------------------------------------------------------------------------------




--------------------------------------- Iteration      1(  23)  ---------------------------------------


    POTLOK:  cpu time    4.2577: real time    4.2886
    SETDIJ:  cpu time    0.0543: real time    0.0545
    TRIAL :  cpu time    1.1522: real time    1.1631
    CORREC:  cpu time    4.7407: real time    4.7779
    CHARGE:  cpu time    0.1772: real time    0.1808
    --------------------------------------------
      LOOP:  cpu time   10.4829: real time   10.5821

 eigenvalue-minimisations  :     0
 total energy-change (2. order) :-0.1645400E-05  (-0.6343735E-06)
 number of electron     216.0000000 magnetization 
 augmentation part       -0.3996798 magnetization 

 Free energy of the ion-electron system (eV)
  ---------------------------------------------------
  alpha Z        PSCENC =        47.94900195
  Ewald energy   TEWEN  =     45170.36305123
  -Hartree energ DENC   =    -52132.97570193
  -exchange      EXHF   =         0.00000000
  -V(xc)+E(xc)   XCENC  =       442.02236024
  PAW double counting   =    101849.61738629  -101565.99924795
  entropy T*S    EENTRO =        -0.00000000
  eigenvalues    EBANDS =     -2659.01294310
  atomic energy  EATOM  =      8420.94593319
  ---------------------------------------------------
  free energy    TOTEN  =      -427.09016007 eV

  energy without entropy =     -427.09016007  energy(sigma->0) =     -427.09016007


--------------------------------------------------------------------------------------------------------




--------------------------------------- Iteration      1(  24)  ---------------------------------------


    POTLOK:  cpu time    4.2610: real time    4.2982
    SETDIJ:  cpu time    0.0542: real time    0.0544
    TRIAL :  cpu time    1.1537: real time    1.1644
    CORREC:  cpu time    4.7325: real time    4.7679
    CHARGE:  cpu time    0.1798: real time    0.1817
    --------------------------------------------
      LOOP:  cpu time   10.4018: real time   10.5241

 eigenvalue-minimisations  :     0
 total energy-change (2. order) :-0.6414775E-06  (-0.2763714E-06)
 number of electron     216.0000000 magnetization 
 augmentation part       -0.3996809 magnetization 

 Free energy of the ion-electron system (eV)
  ---------------------------------------------------
  alpha Z        PSCENC =        47.94900195
  Ewald energy   TEWEN  =     45170.36305123
  -Hartree energ DENC   =    -52132.97177987
  -exchange      EXHF   =         0.00000000
  -V(xc)+E(xc)   XCENC  =       442.02237889
  PAW double counting   =    101849.04585023  -101565.42769623
  entropy T*S    EENTRO =        -0.00000000
  eigenvalues    EBANDS =     -2659.01690010
  atomic energy  EATOM  =      8420.94593319
  ---------------------------------------------------
  free energy    TOTEN  =      -427.09016071 eV

  energy without entropy =     -427.09016071  energy(sigma->0) =     -427.09016071


--------------------------------------------------------------------------------------------------------




--------------------------------------- Iteration      1(  25)  ---------------------------------------


    POTLOK:  cpu time    4.2550: real time    4.2888
    SETDIJ:  cpu time    0.0542: real time    0.0543
    TRIAL :  cpu time    1.1545: real time    1.1676
    CORREC:  cpu time    4.7295: real time    4.7695
    CHARGE:  cpu time    0.1800: real time    0.1818
    --------------------------------------------
      LOOP:  cpu time   10.4058: real time   10.5313

 eigenvalue-minimisations  :     0
 total energy-change (2. order) :-0.2801680E-06  (-0.1241282E-06)
 number of electron     216.0000000 magnetization 
 augmentation part       -0.3996808 magnetization 

 Free energy of the ion-electron system (eV)
  ---------------------------------------------------
  alpha Z        PSCENC =        47.94900195
  Ewald energy   TEWEN  =     45170.36305123
  -Hartree energ DENC   =    -52132.97194659
  -exchange      EXHF   =         0.00000000
  -V(xc)+E(xc)   XCENC  =       442.02241621
  PAW double counting   =    101849.04270915  -101565.42452299
  entropy T*S    EENTRO =        -0.00000000
  eigenvalues    EBANDS =     -2659.01680314
  atomic energy  EATOM  =      8420.94593319
  ---------------------------------------------------
  free energy    TOTEN  =      -427.09016099 eV

  energy without entropy =     -427.09016099  energy(sigma->0) =     -427.09016099


--------------------------------------------------------------------------------------------------------




--------------------------------------- Iteration      1(  26)  ---------------------------------------


    POTLOK:  cpu time    4.2437: real time    4.2782
    SETDIJ:  cpu time    0.0541: real time    0.0543
    TRIAL :  cpu time    1.1535: real time    1.1664
    CORREC:  cpu time    4.7310: real time    4.7727
    CHARGE:  cpu time    0.1784: real time    0.1837
    --------------------------------------------
      LOOP:  cpu time   10.4039: real time   10.4991

 eigenvalue-minimisations  :     0
 total energy-change (2. order) :-0.1261942E-06  (-0.5612830E-07)
 number of electron     216.0000000 magnetization 
 augmentation part       -0.3996792 magnetization 

 Free energy of the ion-electron system (eV)
  ---------------------------------------------------
  alpha Z        PSCENC =        47.94900195
  Ewald energy   TEWEN  =     45170.36305123
  -Hartree energ DENC   =    -52132.97387116
  -exchange      EXHF   =         0.00000000
  -V(xc)+E(xc)   XCENC  =       442.02245706
  PAW double counting   =    101849.11915760  -101565.50095832
  entropy T*S    EENTRO =        -0.00000000
  eigenvalues    EBANDS =     -2659.01493267
  atomic energy  EATOM  =      8420.94593319
  ---------------------------------------------------
  free energy    TOTEN  =      -427.09016112 eV

  energy without entropy =     -427.09016112  energy(sigma->0) =     -427.09016112


--------------------------------------------------------------------------------------------------------




--------------------------------------- Iteration      1(  27)  ---------------------------------------


    POTLOK:  cpu time    4.2675: real time    4.2995
    SETDIJ:  cpu time    0.0543: real time    0.0544
    TRIAL :  cpu time    1.1505: real time    1.1629
    CORREC:  cpu time    4.7311: real time    4.7703
    EDDIAG:  cpu time    0.4358: real time    0.4411
    CHARGE:  cpu time    0.1790: real time    0.1810
    --------------------------------------------
      LOOP:  cpu time   10.8518: real time   10.9609

 eigenvalue-minimisations  :     0
 total energy-change (2. order) :-0.5710172E-07  (-0.2554604E-07)
 number of electron     216.0000000 magnetization 
 augmentation part       -0.3996779 magnetization 

 Free energy of the ion-electron system (eV)
  ---------------------------------------------------
  alpha Z        PSCENC =        47.94900195
  Ewald energy   TEWEN  =     45170.36305123
  -Hartree energ DENC   =    -52132.97513592
  -exchange      EXHF   =         0.00000000
  -V(xc)+E(xc)   XCENC  =       442.02248351
  PAW double counting   =    101849.18647167  -101565.56827730
  entropy T*S    EENTRO =        -0.00000000
  eigenvalues    EBANDS =     -2659.01368950
  atomic energy  EATOM  =      8420.94593319
  ---------------------------------------------------
  free energy    TOTEN  =      -427.09016118 eV

  energy without entropy =     -427.09016118  energy(sigma->0) =     -427.09016118


--------------------------------------------------------------------------------------------------------


  average scaling for gradient   0.8575


 average (electrostatic) potential at core
  the test charge radii are     0.5770  0.5955
  (the norm of the test charge is              1.0000)
       1 -86.0206       2 -86.0191       3 -86.0229       4 -86.0260       5 -86.0169
       6 -86.0158       7 -86.0224       8 -86.0186       9 -86.0186      10 -86.0221
[...]
      21 -86.0155      22 -86.0150      23 -86.0276      24 -86.0271      25 -86.0156
      26 -86.0166      27 -86.0191      28 -86.0220      29 -86.0158      30 -86.0157
      31 -86.0244      32 -86.0216      33 -86.0176      34 -86.0164      35 -86.0163
      36 -86.0172      37 -86.0188      38 -86.0199      39 -86.0201      40 -86.0195
      41 -86.0196      42 -86.0208      43 -86.0180      44 -86.0207      45 -86.0157
      46 -86.0161      47 -86.0170      48 -86.0161      49 -86.0195      50 -86.0183
      51 -89.9524      52-120.4695      53-120.4696
 
 
 
 E-fermi :  -4.4152     XC(G=0):  -2.1758     alpha+bet : -1.6890

 Fermi energy:        -4.4151718471

 k-point     1 :       0.0000    0.0000    0.0000
  band No.  band energies     occupation 
      1     -27.6796      2.00000
      2     -26.6955      2.00000
      3     -22.4500      2.00000
      4     -21.5157      2.00000
      5     -21.5147      2.00000
      6     -21.5136      2.00000
      7     -21.5124      2.00000
      8     -21.5112      2.00000
      9     -21.5111      2.00000
     10     -19.6773      2.00000
     11     -19.6770      2.00000
     12     -19.6770      2.00000
     13     -19.6768      2.00000
     14     -19.6767      2.00000
     15     -19.6764      2.00000
     16     -18.7832      2.00000
     17     -18.7831      2.00000
     18     -18.7828      2.00000
     19     -18.7825      2.00000
     20     -18.7823      2.00000
     21     -18.7821      2.00000
     22     -16.6237      2.00000
     23     -16.6236      2.00000
     24     -16.6229      2.00000
     25     -16.6226      2.00000
     26     -16.6212      2.00000
     27     -16.6210      2.00000
     28     -15.6521      2.00000
     29     -15.6519      2.00000
     30     -15.6518      2.00000
     31     -15.6517      2.00000
     32     -15.6509      2.00000
     33     -15.6508      2.00000
     34     -14.3044      2.00000
     35     -14.3042      2.00000
     36     -14.3038      2.00000
     37     -14.3036      2.00000
     38     -14.3035      2.00000
     39     -14.3030      2.00000
     40     -12.5293      2.00000
     41     -11.9319      2.00000
     42     -11.9317      2.00000
     43     -11.9312      2.00000
     44     -11.9312      2.00000
     45     -11.9304      2.00000
     46     -11.9303      2.00000
     47     -11.8451      2.00000
     48     -11.8451      2.00000
     49     -11.8443      2.00000
     50     -11.8442      2.00000
     51     -11.8431      2.00000
     52     -11.8429      2.00000
     53     -11.3877      2.00000
     54     -11.3257      2.00000
     55     -11.3240      2.00000
     56     -10.6310      2.00000
     57     -10.4776      2.00000
     58     -10.4775      2.00000
     59     -10.4763      2.00000
     60     -10.4759      2.00000
     61     -10.4757      2.00000
     62     -10.4756      2.00000
     63      -9.5183      2.00000
     64      -9.5161      2.00000
     65      -9.5130      2.00000
     66      -9.5123      2.00000
     67      -9.5101      2.00000
     68      -9.5101      2.00000
     69      -9.2188      2.00000
     70      -9.2176      2.00000
     71      -9.2175      2.00000
     72      -9.2166      2.00000
     73      -9.2163      2.00000
     74      -9.2161      2.00000
     75      -9.1535      2.00000
     76      -9.1534      2.00000
     77      -9.1532      2.00000
     78      -9.1530      2.00000
     79      -9.1522      2.00000
     80      -9.1515      2.00000
     81      -7.7899      2.00000
     82      -7.7884      2.00000
     83      -7.5717      2.00000
     84      -7.5709      2.00000
     85      -7.5705      2.00000
     86      -7.5700      2.00000
     87      -7.5682      2.00000
     88      -7.5681      2.00000
     89      -7.3835      2.00000
     90      -7.3834      2.00000
     91      -7.3819      2.00000
     92      -7.3817      2.00000
     93      -7.3812      2.00000
     94      -7.3810      2.00000
     95      -6.4859      2.00000
     96      -6.4846      2.00000
     97      -6.4843      2.00000
     98      -6.4834      2.00000
     99      -6.4830      2.00000
    100      -6.4824      2.00000
    101      -6.0959      2.00000
    102      -6.0937      2.00000
    103      -4.4998      2.00000
    104      -4.4994      2.00000
    105      -4.4991      2.00000
    106      -4.4984      2.00000
    107      -4.4959      2.00000
    108      -4.4957      2.00000
    109      -1.7052      0.00000
    110      -1.7049      0.00000
    111      -1.7027      0.00000
    112      -1.7024      0.00000
    113      -1.7021      0.00000
    114      -1.7019      0.00000
    115      -0.3462      0.00000
    116       0.1508      0.00000
    117       0.1517      0.00000
    118       0.1524      0.00000
    119       0.1538      0.00000
    120       0.1541      0.00000
    121       0.1566      0.00000
    122       0.2569      0.00000
    123       0.6892      0.00000
    124       0.9340      0.00000
    125       1.0168      0.00000
    126       1.0995      0.00000
    127       1.1434      0.00000
    128       1.1584      0.00000
    129       1.1736      0.00000
    130       1.1892      0.00000
    131       1.4696      0.00000
    132       1.6549      0.00000
    133       1.7106      0.00000
    134       1.8948      0.00000
    135       1.9472      0.00000
    136       2.0227      0.00000


--------------------------------------------------------------------------------------------------------


 soft charge-density along one line, spin component           1
         0         1         2         3         4         5         6         7         8         9
 total charge-density along one line
 
 pseudopotential strength for first ion, spin component:           1
 12.717  21.400  -0.000   0.000   0.000  -0.000   0.000   0.000
 21.400  36.010  -0.000   0.000   0.000  -0.000   0.000   0.000
 -0.000  -0.000  -3.220  -0.000   0.000  -5.771  -0.000   0.000
  0.000   0.000  -0.000  -3.224  -0.000  -0.000  -5.779  -0.000
  0.000   0.000   0.000  -0.000  -3.220   0.000  -0.000  -5.771
 -0.000  -0.000  -5.771  -0.000   0.000 -10.322  -0.000   0.000
  0.000   0.000  -0.000  -5.779  -0.000  -0.000 -10.335  -0.000
  0.000   0.000   0.000  -0.000  -5.771   0.000  -0.000 -10.322
 total augmentation occupancy for first ion, spin component:           1
  7.415  -2.550  -0.000  -0.002  -0.000   0.000   0.001   0.000
 -2.550   0.916   0.000   0.001  -0.000  -0.000  -0.000   0.000
 -0.000   0.000   6.889  -0.007   0.000  -2.287   0.003  -0.000
 -0.002   0.001  -0.007   2.993  -0.000   0.003  -0.763   0.000
 -0.000  -0.000   0.000  -0.000   6.889  -0.000   0.000  -2.287
  0.000  -0.000  -2.287   0.003  -0.000   0.775  -0.001   0.000
  0.001  -0.000   0.003  -0.763   0.000  -0.001   0.202  -0.000
  0.000   0.000  -0.000   0.000  -2.287   0.000  -0.000   0.775


------------------------ aborting loop because EDIFF is reached ----------------------------------------


    FORLOC:  cpu time    0.0688: real time    0.0695
    FORNL :  cpu time    0.8426: real time    0.8471
    FORCOR:  cpu time    4.3331: real time    4.3814
    OFIELD:  cpu time    0.0016: real time    0.0016

 VOLUME and BASIS-vectors are now :
 -----------------------------------------------------------------------------
  energy-cutoff  :     1000.00
  volume of cell :     3288.85
      direct lattice vectors                 reciprocal lattice vectors
    12.325000000  0.000000000  0.000000000     0.081135903  0.046843835  0.000000000
    -6.162500000 10.673763102  0.000000000     0.000000000  0.093687670  0.000000000
     0.000000000  0.000000000 25.000000000     0.000000000  0.000000000  0.040000000

  length of vectors
    12.325000000 12.325000000 25.000000000     0.093687670  0.093687670  0.040000000


 FORCES acting on ions:
    Electron-Ion                     Ewald-Force                    Non-Local-Force
 -----------------------------------------------------------------------------------------------
   0.514E+01 0.447E+01 0.245E+02   -.515E+01 -.447E+01 -.246E+02   0.938E-02 -.137E-02 0.826E-02
   0.767E+01 0.373E+01 0.286E+02   -.768E+01 -.373E+01 -.286E+02   0.115E-01 -.539E-02 -.547E-02
   0.338E+01 0.897E+01 0.318E+02   -.338E+01 -.899E+01 -.318E+02   -.923E-03 0.217E-01 0.993E-02
   0.461E+01 0.668E+01 0.410E+02   -.462E+01 -.669E+01 -.410E+02   0.203E-01 0.521E-02 0.101E-01
   0.550E+01 0.130E+01 0.248E+02   -.550E+01 -.129E+01 -.248E+02   0.332E-02 -.947E-02 -.104E-02
   0.567E+01 -.108E+01 0.251E+02   -.567E+01 0.108E+01 -.251E+02   -.750E-02 0.127E-02 -.944E-02
   0.858E+01 0.317E+01 0.381E+02   -.860E+01 -.316E+01 -.381E+02   0.245E-01 -.259E-01 0.163E-02
   0.830E+01 -.296E+01 0.395E+02   -.832E+01 0.297E+01 -.395E+02   0.454E-02 -.131E-01 -.966E-02
   -.398E+01 0.809E+01 0.320E+02   0.399E+01 -.810E+01 -.320E+02   -.815E-02 -.567E-02 -.857E-02
   -.622E+01 0.523E+01 0.399E+02   0.624E+01 -.525E+01 -.399E+02   -.401E-01 0.246E-01 0.881E-02
   0.142E+01 -.136E+01 0.219E+02   -.141E+01 0.136E+01 -.219E+02   0.109E-02 -.172E-02 -.387E-02
   0.120E+01 -.997E+00 0.209E+02   -.119E+01 0.995E+00 -.209E+02   -.106E-01 0.477E-02 0.289E-02
   0.332E+01 -.717E+01 0.426E+02   -.334E+01 0.719E+01 -.426E+02   0.408E-01 -.176E-01 0.400E-02
   0.181E+01 -.897E+01 0.328E+02   -.182E+01 0.898E+01 -.328E+02   0.117E-01 0.159E-04 -.192E-01
   -.494E+01 0.306E+01 0.241E+02   0.494E+01 -.306E+01 -.241E+02   0.794E-02 -.370E-02 0.168E-03
   -.687E+01 0.202E+01 0.262E+02   0.688E+01 -.203E+01 -.262E+02   -.569E-02 0.898E-02 -.122E-01
   -.848E+00 -.337E+00 0.203E+02   0.855E+00 0.334E+00 -.203E+02   -.417E-02 0.163E-02 0.123E-02
   0.409E+00 0.299E+01 0.211E+02   -.405E+00 -.299E+01 -.211E+02   -.567E-02 0.338E-02 0.910E-02
   -.135E+01 -.824E+01 0.281E+02   0.134E+01 0.824E+01 -.281E+02   0.117E-01 -.614E-02 0.190E-02
   -.682E+00 -.451E+01 0.226E+02   0.675E+00 0.451E+01 -.226E+02   0.362E-02 -.417E-02 -.155E-02
   0.768E+01 -.339E+01 0.300E+02   -.769E+01 0.339E+01 -.299E+02   0.240E-02 -.615E-02 -.268E-01
   0.501E+01 -.421E+01 0.262E+02   -.501E+01 0.421E+01 -.262E+02   -.693E-02 0.610E-02 -.107E-01
   -.160E+01 0.311E+01 0.467E+02   0.160E+01 -.312E+01 -.467E+02   -.168E-01 0.167E-01 0.339E-01
   -.224E+01 -.489E+01 0.457E+02   0.223E+01 0.490E+01 -.457E+02   0.159E-01 -.237E-01 0.197E-01
   0.257E+01 -.105E+01 0.220E+02   -.257E+01 0.105E+01 -.220E+02   0.352E-03 -.132E-02 -.775E-02
   0.554E+00 0.227E+01 0.220E+02   -.550E+00 -.227E+01 -.220E+02   -.884E-02 0.539E-02 0.164E-02
   -.909E+01 0.124E+01 0.338E+02   0.911E+01 -.125E+01 -.337E+02   0.164E-02 0.133E-01 -.468E-02
   -.868E+01 -.349E+01 0.321E+02   0.869E+01 0.348E+01 -.321E+02   -.189E-01 0.132E-01 0.604E-02
   0.300E+01 -.602E+01 0.269E+02   -.300E+01 0.602E+01 -.269E+02   0.948E-02 0.123E-02 -.142E-01
   0.267E+00 -.247E+01 0.229E+02   -.272E+00 0.247E+01 -.229E+02   -.269E-02 0.313E-02 -.700E-02
   -.652E+01 -.685E+01 0.364E+02   0.653E+01 0.686E+01 -.364E+02   -.204E-01 -.131E-01 0.476E-02
   -.428E+01 -.789E+01 0.290E+02   0.429E+01 0.790E+01 -.290E+02   0.599E-03 -.927E-02 0.899E-02
   0.332E+00 0.131E+01 0.208E+02   -.335E+00 -.131E+01 -.208E+02   0.847E-02 -.619E-02 0.474E-02
   0.872E+00 0.130E+01 0.218E+02   -.876E+00 -.130E+01 -.218E+02   -.894E-03 0.301E-02 -.439E-02
   -.347E+01 0.519E+00 0.229E+02   0.347E+01 -.522E+00 -.229E+02   0.420E-02 -.116E-02 0.125E-02
   -.305E+01 -.127E+01 0.226E+02   0.305E+01 0.127E+01 -.226E+02   -.799E-02 0.463E-02 0.452E-03
   -.599E+01 -.311E+01 0.247E+02   0.600E+01 0.311E+01 -.248E+02   -.796E-02 0.195E-02 0.307E-02
   -.372E+01 -.298E+01 0.223E+02   0.373E+01 0.298E+01 -.223E+02   -.778E-02 0.166E-02 0.975E-02
   -.342E+01 -.442E+01 0.233E+02   0.342E+01 0.442E+01 -.233E+02   -.646E-02 -.224E-02 0.720E-02
   -.517E+00 -.111E+01 0.212E+02   0.517E+00 0.112E+01 -.212E+02   0.263E-02 -.763E-03 0.838E-02
   0.128E+01 0.317E+01 0.216E+02   -.128E+01 -.317E+01 -.217E+02   -.465E-02 0.478E-02 0.818E-02
   0.403E+01 0.631E+01 0.254E+02   -.404E+01 -.632E+01 -.254E+02   0.362E-02 0.304E-02 0.119E-01
   0.349E+00 0.541E+01 0.230E+02   -.341E+00 -.542E+01 -.230E+02   -.430E-02 0.500E-02 0.725E-03
   -.823E-01 0.883E+01 0.290E+02   0.922E-01 -.883E+01 -.290E+02   -.151E-01 0.773E-02 0.677E-02
   -.102E+01 0.198E+01 0.227E+02   0.102E+01 -.198E+01 -.227E+02   0.277E-02 -.303E-02 -.370E-02
   -.405E+01 0.502E+01 0.256E+02   0.405E+01 -.502E+01 -.256E+02   -.104E-01 0.227E-02 -.873E-02
   -.839E+00 -.222E+01 0.218E+02   0.835E+00 0.222E+01 -.218E+02   0.997E-02 -.250E-02 0.271E-02
   -.202E+01 0.781E+00 0.211E+02   0.202E+01 -.779E+00 -.211E+02   -.608E-03 0.235E-02 -.656E-02
   0.198E+00 -.139E+01 0.210E+02   -.201E+00 0.139E+01 -.210E+02   0.651E-02 -.404E-02 0.593E-02
   0.219E+01 0.158E+01 0.211E+02   -.220E+01 -.158E+01 -.211E+02   0.385E-02 0.996E-03 0.305E-02
   0.352E-01 -.143E-01 -.342E+03   -.357E-01 0.155E-01 0.342E+03   -.348E-02 0.225E-02 -.138E-01
   -.229E+03 0.156E+03 -.525E+03   0.279E+03 -.190E+03 0.529E+03   -.512E+02 0.348E+02 -.346E+01
   0.229E+03 -.156E+03 -.503E+03   -.279E+03 0.190E+03 0.500E+03   0.512E+02 -.348E+02 0.306E+01
 -----------------------------------------------------------------------------------------------
   -.231E-02 0.106E-01 0.369E+00   0.171E-12 -.142E-12 0.568E-13   0.217E-02 -.106E-01 -.370E+00
 
 
 POSITION                                       TOTAL-FORCE (eV/Angst)
 -----------------------------------------------------------------------------------
     11.98348      0.00342      0.01417         0.002817     -0.001045     -0.000950
     -0.34154      1.42665      0.01100        -0.002244     -0.000157     -0.002502
      2.12355      0.00315      0.01249        -0.001189      0.007429     -0.004682
      2.12326      1.42653      0.00641         0.009896      0.000056     -0.003613
     10.75099      2.13819      0.01213         0.000203     -0.004944      0.000234
     -1.57382      3.56123      0.01110        -0.007596      0.005179     -0.001200
      0.89078      2.13854      0.00548         0.006711     -0.016098      0.004726
      0.89099      3.56147      0.00181        -0.013406     -0.001025      0.013854
      4.58864      0.00346      0.01135         0.004616     -0.016795     -0.002375
      4.58894      1.42623      0.00646        -0.018894      0.010522      0.016827
      9.51854      4.27281      0.01369         0.006913     -0.003556      0.000280
     -2.80632      5.69591      0.01434        -0.006225      0.003283      0.000866
      2.12300      4.27302      0.00000         0.020299     -0.002980      0.023537
      2.12335      5.69594      0.00581        -0.001588      0.010266     -0.001339
      7.05344      0.00333      0.01399         0.008492     -0.004693     -0.000163
      7.05353      1.42635      0.01368        -0.001506      0.004295     -0.003198
      8.28610      6.40752      0.01601         0.003420     -0.001575     -0.000680
     -4.03885      7.83070      0.01636        -0.001825      0.000979     -0.000118
      3.35586      6.40753      0.01007         0.003997      0.000501     -0.000959
      3.35599      7.83072      0.01320        -0.003493      0.000617     -0.000397
     -0.34146      4.27290      0.00723        -0.002007     -0.000981     -0.003499
     -0.34138      5.69591      0.00946        -0.008437      0.005444     -0.000718
      3.35624      2.13791      0.00222        -0.010834      0.009593      0.022807
      3.35573      3.56155      0.00139         0.011596     -0.012650      0.014539
     -1.57395      6.40758      0.01311         0.006282     -0.004192     -0.000509
     -1.57385      7.83068      0.01438        -0.004542      0.003718      0.000179
      5.82093      2.13784      0.01033         0.017284      0.004256     -0.001607
      5.82114      3.56097      0.01156        -0.004440      0.006667     -0.002542
      0.89092      6.40755      0.00907         0.003963      0.001806     -0.001705
      0.89106      7.83068      0.01235        -0.007075      0.003060      0.000445
      4.58871      4.27293      0.00850        -0.009407     -0.004967     -0.007741
      4.58852      5.69606      0.01149         0.001739      0.001032     -0.003077
      9.51845      0.00337      0.01490         0.004497     -0.004560      0.000246
      9.51855      1.42644      0.01438        -0.004976      0.005918     -0.000238
      8.28593      2.13803      0.01453         0.005795     -0.003752      0.000678
      8.28613      3.56115      0.01464        -0.004088      0.001857      0.000112
      7.05356      4.27269      0.01457         0.003754     -0.000888     -0.000210
      7.05362      5.69588      0.01553        -0.002271      0.001159     -0.000104
      5.82112      6.40755      0.01489        -0.002151      0.001876      0.000106
      5.82102      7.83073      0.01579         0.002547      0.000561     -0.000270
      7.05363      8.54227      0.01631        -0.004436      0.000663      0.001138
     -5.27149      9.96549      0.01495        -0.000891     -0.002618     -0.001818
     -2.80638      8.54234      0.01558         0.003481     -0.002012     -0.000910
     -2.80627      9.96553      0.01362        -0.004865     -0.000394     -0.003247
     -0.34149      8.54239      0.01378         0.005815     -0.004101      0.000339
     -0.34138      9.96550      0.01354        -0.005446      0.000225     -0.000810
      2.12343      8.54232      0.01336         0.005579     -0.001522      0.000872
      2.12354      9.96544      0.01469        -0.005907      0.004099     -0.001788
      4.58846      8.54235      0.01505         0.003467     -0.002837      0.000978
      4.58853      9.96550      0.01517        -0.003384      0.003290      0.000306
      3.04930      2.68154      4.71937        -0.003862      0.003480      0.007988
      4.02070      2.02068      4.78379        -0.581875      0.395483     -0.064816
      2.07767      3.34267      4.65992         0.585696     -0.398974      0.006729
 -----------------------------------------------------------------------------------
    total drift:                               -0.000146      0.000001     -0.000688


--------------------------------------------------------------------------------------------------------



  FREE ENERGIE OF THE ION-ELECTRON SYSTEM (eV)
  ---------------------------------------------------
  free  energy   TOTEN  =      -427.09016118 eV

  energy  without entropy=     -427.09016118  energy(sigma->0) =     -427.09016118
 


--------------------------------------------------------------------------------------------------------


    POTLOK:  cpu time    4.3105: real time    4.3544


--------------------------------------------------------------------------------------------------------


 writing wavefunctions
     LOOP+:  cpu time  287.4920: real time  290.3710
    4ORBIT:  cpu time    0.0001: real time    0.0001

 total amount of memory used by VASP MPI-rank0   100580. kBytes
=======================================================================

   base      :      30000. kBytes
   nonl-proj :       8229. kBytes
   fftplans  :      18352. kBytes
   grid      :      30208. kBytes
   one-center:          6. kBytes
   wavefun   :      13785. kBytes
 
  
  
 General timing and accounting informations for this job:
 ========================================================
  
                  Total CPU time used (sec):      330.661
                            User time (sec):      305.786
                          System time (sec):       24.874
                         Elapsed time (sec):      334.767
  
                   Maximum memory used (kb):      779228.
                   Average memory used (kb):          N/A
  
                          Minor page faults:       400587
                          Major page faults:          121
                 Voluntary context switches:         3876
