 vasp.6.2.1 16May21 (build Nov 06 2021 14:46:37) complex                        
  
 executed on             LinuxIFC date 2025.04.16  18:04:46
 running on  112 total cores
 distrk:  each k-point on  112 cores,    1 groups
 distr:  one band on NCORE=  28 cores,    4 groups


--------------------------------------------------------------------------------------------------------


 INCAR:
   ALGO = Conjugate
   NPAR = 4
   ISMEAR = 0
   SIGMA = 0.01
   PREC = Accurate
   EDIFF = 1E-7
   ENCUT = 1000
   ISIF = 0
   GGA = MK
   LUSE_VDW = .TRUE.
   PARAM1 = 0.1234
   PARAM2 = 0.711357
   ZAB_VDW = -1.8867
   AGGAC = 0.0000
   LASPH = .TRUE.

 POTCAR:    PAW_PBE C_h 06Feb2004                 
 POTCAR:    PAW_PBE O_h 06Feb2004                 
 -----------------------------------------------------------------------------
|                                                                             |
|           W    W    AA    RRRRR   N    N  II  N    N   GGGG   !!!           |
|           W    W   A  A   R    R  NN   N  II  NN   N  G    G  !!!           |
|           W    W  A    A  R    R  N N  N  II  N N  N  G       !!!           |
|           W WW W  AAAAAA  RRRRR   N  N N  II  N  N N  G  GGG   !            |
|           WW  WW  A    A  R   R   N   NN  II  N   NN  G    G                |
|           W    W  A    A  R    R  N    N  II  N    N   GGGG   !!!           |
|                                                                             |
|     For optimal performance we recommend to set                             |
|       NCORE = 2 up to number-of-cores-per-socket                            |
|     NCORE specifies how many cores store one orbital (NPAR=cpu/NCORE).      |
|     This setting can greatly improve the performance of VASP for DFT.       |
|     The default, NCORE=1 might be grossly inefficient on modern             |
|     multi-core architectures or massively parallel machines. Do your        |
|     own testing! More info at https://www.vasp.at/wiki/index.php/NCORE      |
|     Unfortunately you need to use the default for GW and RPA                |
|     calculations (for HF NCORE is supported but not extensively tested      |
|     yet).                                                                   |
|                                                                             |
 -----------------------------------------------------------------------------

 -----------------------------------------------------------------------------
|                                                                             |
|               ----> ADVICE to this user running VASP <----                  |
|                                                                             |
|     You have switched on vdW-DFT.                                           |
|     This routine was written and supplied by Jiri Klimes. We recommend      |
|     that you carefully read and cite the following publications:            |
|       J. Klimes, D.R. Bowler, A. Michelides                                 |
|          J. Phys.: Cond Matt. 22 022201 (2010)                              |
|       J. Klimes, D.R. Bowler, A. Michelides                                 |
|          Phys. Rev. B. 83, 195131 (2011)                                    |
|     and references therein.                                                 |
|                                                                             |
 -----------------------------------------------------------------------------

 POTCAR:    PAW_PBE C_h 06Feb2004                 
   VRHFIN =C: s2p2                                                                                  
   LEXCH  = PE                                                                                      
   EATOM  =   147.1560 eV,   10.8157 Ry                                                             
                                                                                                    
   TITEL  = PAW_PBE C_h 06Feb2004                                                                   
   LULTRA =        F    use ultrasoft PP ?                                                          
   IUNSCR =        1    unscreen: 0-lin 1-nonlin 2-no                                               
   RPACOR =    0.800    partial core radius                                                         
   POMASS =   12.011; ZVAL   =    4.000    mass and valenz                                          
   RCORE  =    1.100    outmost cutoff radius                                                       
   RWIGS  =    1.630; RWIGS  =    0.863    wigner-seitz radius (au A)                               
   ENMAX  =  700.000; ENMIN  =  500.000 eV                                                          
   ICORE  =        2    local potential                                                             
   LCOR   =        T    correct aug charges                                                         
   LPAW   =        T    paw PP                                                                      
   EAUG   =  946.768                                                                                
   DEXC   =    0.000                                                                                
   RMAX   =    1.128    core radius for proj-oper                                                   
   RAUG   =    1.300    factor for augmentation sphere                                              
   RDEP   =    1.162    radius for radial grids                                                     
   RDEPT  =    1.088    core radius for aug-charge                                                  
                                                                                                    
   Atomic configuration                                                                             
    4 entries                                                                                       
     n  l   j            E        occ.                                                              
     1  0  0.50      -273.3789   2.0000                                                             
     2  0  0.50       -13.7508   2.0000                                                             
     2  1  0.50        -5.2854   2.0000                                                             
     3  2  1.50        -5.4423   0.0000                                                             
   Description                                                                                      
     l       E           TYP  RCUT    TYP  RCUT                                                     
     0    -13.7508458     23  1.100                                                                 
     0     -8.2022199     23  1.100                                                                 
     1     -5.2854383     23  1.100                                                                 
     1      1.1560700     23  1.100                                                                 
     2     -5.4423304      7  1.100                                                                 
  local pseudopotential read in
  partial core-charges read in
  partial kinetic energy density read in
  atomic valenz-charges read in
  non local Contribution for L=           0  read in
    real space projection operators read in
  non local Contribution for L=           0  read in
    real space projection operators read in
  non local Contribution for L=           1  read in
    real space projection operators read in
  non local Contribution for L=           1  read in
    real space projection operators read in
    PAW grid and wavefunctions read in
 
   number of l-projection  operators is LMAX  =           4
   number of lm-projection operators is LMMAX =           8
 
 POTCAR:    PAW_PBE O_h 06Feb2004                 
   VRHFIN =O: s2p4                                                                                  
   LEXCH  = PE                                                                                      
   EATOM  =   432.3788 eV,   31.7789 Ry                                                             
                                                                                                    
   TITEL  = PAW_PBE O_h 06Feb2004                                                                   
   LULTRA =        F    use ultrasoft PP ?                                                          
   IUNSCR =        1    unscreen: 0-lin 1-nonlin 2-no                                               
   RPACOR =    0.800    partial core radius                                                         
   POMASS =   16.000; ZVAL   =    6.000    mass and valenz                                          
   RCORE  =    1.100    outmost cutoff radius                                                       
   RWIGS  =    1.400; RWIGS  =    0.741    wigner-seitz radius (au A)                               
   ENMAX  =  700.000; ENMIN  =  500.000 eV                                                          
   ICORE  =        2    local potential                                                             
   LCOR   =        T    correct aug charges                                                         
   LPAW   =        T    paw PP                                                                      
   EAUG   =  888.804                                                                                
   DEXC   =    0.000                                                                                
   RMAX   =    1.128    core radius for proj-oper                                                   
   RAUG   =    1.300    factor for augmentation sphere                                              
   RDEP   =    1.125    radius for radial grids                                                     
   RDEPT  =    1.088    core radius for aug-charge                                                  
                                                                                                    
   Atomic configuration                                                                             
    4 entries                                                                                       
     n  l   j            E        occ.                                                              
     1  0  0.50      -514.6923   2.0000                                                             
     2  0  0.50       -23.9615   2.0000                                                             
     2  1  0.50        -9.0305   4.0000                                                             
     3  2  1.50        -9.5241   0.0000                                                             
   Description                                                                                      
     l       E           TYP  RCUT    TYP  RCUT                                                     
     0    -23.9615319     23  1.100                                                                 
     0    -25.3221145     23  1.100                                                                 
     1     -9.0304911     23  1.100                                                                 
     1     -5.4802209     23  1.100                                                                 
     2     -9.5240782      7  1.100                                                                 
  local pseudopotential read in
  partial core-charges read in
  partial kinetic energy density read in
  atomic valenz-charges read in
  non local Contribution for L=           0  read in
    real space projection operators read in
  non local Contribution for L=           0  read in
    real space projection operators read in
  non local Contribution for L=           1  read in
    real space projection operators read in
  non local Contribution for L=           1  read in
    real space projection operators read in
    PAW grid and wavefunctions read in
 
   number of l-projection  operators is LMAX  =           4
   number of lm-projection operators is LMMAX =           8
 
 -----------------------------------------------------------------------------
|                                                                             |
|               ----> ADVICE to this user running VASP <----                  |
|                                                                             |
|     You have a (more or less) 'large supercell' and for larger cells it     |
|     might be more efficient to use real-space projection operators.         |
|     Therefore, try LREAL= Auto in the INCAR file.                           |
|     Mind: For very accurate calculation, you might also keep the            |
|     reciprocal projection scheme (i.e. LREAL=.FALSE.).                      |
|                                                                             |
 -----------------------------------------------------------------------------

 -----------------------------------------------------------------------------
|                                                                             |
|               ----> ADVICE to this user running VASP <----                  |
|                                                                             |
|     You enforced a specific xc type in the INCAR file but a different       |
|     type was found in the POTCAR file.                                      |
|     I HOPE YOU KNOW WHAT YOU ARE DOING!                                     |
|                                                                             |
 -----------------------------------------------------------------------------

  PAW_PBE C_h 06Feb2004                 :
 energy of atom  1       EATOM= -147.1560
 kinetic energy error for atom=    0.0031 (will be added to EATOM!!)
  PAW_PBE O_h 06Feb2004                 :
 energy of atom  2       EATOM= -432.3788
 kinetic energy error for atom=    0.0171 (will be added to EATOM!!)
 
 
 POSCAR:  C  O
  positions in cartesian coordinates
  No initial velocities read in
 exchange correlation table for  LEXCH =       43
   RHO(1)=    0.500       N(1)  =     2000
   RHO(2)=  100.500       N(2)  =     4000
 


--------------------------------------------------------------------------------------------------------


 ion  position               nearest neighbor table
   1  0.972  0.000  0.001-  50 1.42   2 1.42  42 1.42
   2  0.039  0.134  0.000-   5 1.42   7 1.42   1 1.42
   3  0.172  0.000  0.000-  42 1.42  44 1.42   4 1.42
   4  0.239  0.134  0.000-   7 1.42   3 1.42  23 1.42
   5  0.972  0.200  0.000-   6 1.42   2 1.42  34 1.42
   6  0.039  0.334  0.000-   5 1.42  21 1.42  11 1.42
   7  0.172  0.200  0.000-   8 1.42   2 1.42   4 1.42
   8  0.239  0.334  0.000-  13 1.42   7 1.42  21 1.42
   9  0.372  0.000  0.000-  10 1.42  44 1.42  46 1.42
  10  0.439  0.134  0.000-  27 1.42   9 1.42  23 1.42
  11  0.972  0.400  0.001-  12 1.42  36 1.42   6 1.42
  12  0.039  0.534  0.001-  25 1.42  11 1.42  17 1.42
  13  0.372  0.400  0.000-   8 1.42  14 1.42  24 1.42
  14  0.439  0.534  0.000-  13 1.42  29 1.42  19 1.42
  15  0.572  0.000  0.001-  46 1.42  16 1.42  48 1.42
  16  0.639  0.134  0.001-  15 1.42  35 1.42  27 1.42
  17  0.972  0.600  0.001-  38 1.42  18 1.42  12 1.42
  18  0.039  0.734  0.001-  43 1.42  41 1.42  17 1.42
  19  0.572  0.600  0.000-  14 1.42  20 1.42  32 1.42
  20  0.639  0.734  0.001-  49 1.42  19 1.42  47 1.42
  21  0.172  0.400  0.000-  22 1.42   8 1.42   6 1.42
  22  0.239  0.534  0.000-  21 1.42  29 1.42  25 1.42
  23  0.372  0.200  0.000-  10 1.42   4 1.42  24 1.42
  24  0.439  0.334  0.000-  13 1.42  31 1.42  23 1.42
  25  0.172  0.600  0.001-  26 1.42  12 1.42  22 1.42
  26  0.239  0.734  0.001-  25 1.42  45 1.42  43 1.42
  27  0.572  0.200  0.000-  10 1.42  28 1.42  16 1.42
  28  0.639  0.334  0.000-  27 1.42  37 1.42  31 1.42
  29  0.372  0.600  0.000-  22 1.42  14 1.42  30 1.42
  30  0.439  0.734  0.000-  47 1.42  29 1.42  45 1.42
  31  0.572  0.400  0.000-  32 1.42  28 1.42  24 1.42
  32  0.639  0.534  0.000-  31 1.42  39 1.42  19 1.42
  33  0.772  0.000  0.001-  34 1.42  48 1.42  50 1.42
  34  0.839  0.134  0.001-  33 1.42   5 1.42  35 1.42
  35  0.772  0.200  0.001-  36 1.42  16 1.42  34 1.42
  36  0.839  0.334  0.001-  35 1.42  11 1.42  37 1.42
  37  0.772  0.400  0.001-  28 1.42  38 1.42  36 1.42
  38  0.839  0.534  0.001-  17 1.42  37 1.42  39 1.42
  39  0.772  0.600  0.001-  40 1.42  38 1.42  32 1.42
  40  0.839  0.734  0.001-  39 1.42  49 1.42  41 1.42
  41  0.972  0.800  0.001-  18 1.42  42 1.42  40 1.42
  42  0.039  0.934  0.001-   3 1.42  41 1.42   1 1.42
  43  0.172  0.800  0.001-  18 1.42  44 1.42  26 1.42
  44  0.239  0.934  0.001-   9 1.42  43 1.42   3 1.42
  45  0.372  0.800  0.001-  26 1.42  46 1.42  30 1.42
  46  0.439  0.934  0.001-  15 1.42  45 1.42   9 1.42
  47  0.572  0.800  0.001-  30 1.42  48 1.42  20 1.42
  48  0.639  0.934  0.001-  47 1.42  33 1.42  15 1.42
  49  0.772  0.800  0.001-  50 1.42  20 1.42  40 1.42
  50  0.839  0.934  0.001-  49 1.42   1 1.42  33 1.42
  51  0.373  0.251  0.126-  52 1.18  53 1.18
  52  0.421  0.189  0.129-  51 1.18
  53  0.325  0.313  0.124-  51 1.18
 
  LATTYP: Found a hexagonal cell.
 ALAT       =    12.3250000000
 C/A-ratio  =     2.0283975659
  
  Lattice vectors:
  
 A1 = (  12.3250000000,   0.0000000000,   0.0000000000)
 A2 = (  -6.1625000000,  10.6737631016,   0.0000000000)
 A3 = (   0.0000000000,   0.0000000000,  25.0000000000)


Analysis of symmetry for initial positions (statically):
=====================================================================
 Subroutine PRICEL returns:
 Original cell was already a primitive cell.
 

 Routine SETGRP: Setting up the symmetry group for a 
 hexagonal supercell.


 Subroutine GETGRP returns: Found  1 space group operations
 (whereof  1 operations were pure point group operations)
 out of a pool of 24 trial point group operations.


The static configuration has the point symmetry C_1 .


Analysis of symmetry for dynamics (positions and initial velocities):
=====================================================================
 Subroutine PRICEL returns:
 Original cell was already a primitive cell.
 

 Routine SETGRP: Setting up the symmetry group for a 
 hexagonal supercell.


 Subroutine GETGRP returns: Found  1 space group operations
 (whereof  1 operations were pure point group operations)
 out of a pool of 24 trial point group operations.


The dynamic configuration has the point symmetry C_1 .


 Subroutine INISYM returns: Found  1 space group operations
 (whereof  1 operations are pure point group operations),
 and found     1 'primitive' translations


----------------------------------------------------------------------------------------

                                     Primitive cell                                     

  volume of cell :    3288.8533

  direct lattice vectors                    reciprocal lattice vectors
    12.325000000  0.000000000  0.000000000     0.081135903  0.046843835  0.000000000
    -6.162500000 10.673763102  0.000000000     0.000000000  0.093687670  0.000000000
     0.000000000  0.000000000 25.000000000     0.000000000  0.000000000  0.040000000

  length of vectors
    12.325000000 12.325000000 25.000000000     0.093687670  0.093687670  0.040000000

  position of ions in fractional coordinates (direct lattice)
     0.972450841  0.000320818  0.000566711
     0.039118382  0.133659505  0.000440173
     0.172443627  0.000295449  0.000499628
     0.239096278  0.133647917  0.000256468
     0.972452058  0.200322012  0.000485219
     0.039128360  0.333643771  0.000444150
     0.172451764  0.200354552  0.000219167
     0.239124359  0.333665720  0.000072260
     0.372465565  0.000324403  0.000453913
     0.439137473  0.133619939  0.000258338
     0.972449824  0.400309362  0.000547611
     0.039124981  0.533636789  0.000573410
     0.372416176  0.400329481  0.000000000
     0.439099602  0.533638981  0.000232414
     0.572443676  0.000312125  0.000559580
     0.639110207  0.133631751  0.000547275
     0.972452703  0.600305653  0.000640289
     0.039124495  0.733640359  0.000654513
     0.572433471  0.600306242  0.000402895
     0.639111888  0.733641879  0.000527905
     0.172454630  0.400318228  0.000289045
     0.239120185  0.533636548  0.000378509
     0.372459750  0.200295993  0.000088997
     0.439107096  0.333673419  0.000055762
     0.172452155  0.600311506  0.000524340
     0.239123371  0.733638574  0.000575129
     0.572431082  0.200289171  0.000413296
     0.639112773  0.333618630  0.000462376
     0.372439808  0.600308022  0.000362844
     0.439116090  0.733637858  0.000494190
     0.572469358  0.400320504  0.000339918
     0.639119408  0.533650873  0.000459610
     0.772445723  0.000315427  0.000596161
     0.839116277  0.133640203  0.000575306
     0.772440513  0.200307432  0.000581033
     0.839120241  0.333635728  0.000585467
     0.772446320  0.400298367  0.000582978
     0.839118980  0.533633964  0.000621100
     0.772456143  0.600308173  0.000595712
     0.839115033  0.733643180  0.000631512
     0.972455313  0.800305582  0.000652233
     0.039114714  0.933643289  0.000598051
     0.172457971  0.800312211  0.000623372
     0.239134551  0.933647193  0.000544850
     0.372451396  0.800316674  0.000551399
     0.439124489  0.933644769  0.000541430
     0.572441101  0.800310054  0.000534535
     0.639115067  0.933638985  0.000587644
     0.772445098  0.800313187  0.000602062
     0.839116614  0.933644338  0.000606830
     0.373021009  0.251226878  0.125992105
     0.420879805  0.189313152  0.128568979
     0.325156981  0.313167186  0.123613910

  ion indices of the primitive-cell ions
   primitive index   ion index
                 1           1
                 2           2
                 3           3
                 4           4
                 5           5
                 6           6
                 7           7
                 8           8
                 9           9
                10          10
                11          11
                12          12
                13          13
                14          14
                15          15
                16          16
                17          17
                18          18
                19          19
                20          20
                21          21
                22          22
                23          23
                24          24
                25          25
                26          26
                27          27
                28          28
                29          29
                30          30
                31          31
                32          32
                33          33
                34          34
                35          35
                36          36
                37          37
                38          38
                39          39
                40          40
                41          41
                42          42
                43          43
                44          44
                45          45
                46          46
                47          47
                48          48
                49          49
                50          50
                51          51
                52          52
                53          53

----------------------------------------------------------------------------------------

 
 
 KPOINTS: auto                                    

Automatic generation of k-mesh.
 Grid dimensions read from file:
 generate k-points for:    1    1    1

 Generating k-lattice:

  Cartesian coordinates                     Fractional coordinates (reciprocal lattice)
     0.081135903  0.046843835  0.000000000     1.000000000 -0.000000000  0.000000000
     0.000000000  0.093687670  0.000000000     0.000000000  1.000000000  0.000000000
     0.000000000  0.000000000  0.040000000     0.000000000  0.000000000  1.000000000

  Length of vectors
     0.093687670  0.093687670  0.040000000

  Shift w.r.t. Gamma in fractional coordinates (k-lattice)
     0.000000000  0.000000000  0.000000000

 
 Subroutine IBZKPT returns following result:
 ===========================================
 
 Found      1 irreducible k-points:
 
 Following reciprocal coordinates:
            Coordinates               Weight
  0.000000  0.000000  0.000000      1.000000
 
 Following cartesian coordinates:
            Coordinates               Weight
  0.000000  0.000000  0.000000      1.000000
 


--------------------------------------------------------------------------------------------------------




 Dimension of arrays:
   k-points           NKPTS =      1   k-points in BZ     NKDIM =      1   number of bands    NBANDS=    136
   number of dos      NEDOS =    301   number of ions     NIONS =     53
   non local maximal  LDIM  =      4   non local SUM 2l+1 LMDIM =      8
   total plane-waves  NPLWV = ******
   max r-space proj   IRMAX =      1   max aug-charges    IRDMAX=  10008
   dimension x,y,z NGX =   128 NGY =  128 NGZ =  270
   dimension x,y,z NGXF=   256 NGYF=  256 NGZF=  540
   support grid    NGXF=   256 NGYF=  256 NGZF=  540
   ions per type =              51   2
   NGX,Y,Z   is equivalent  to a cutoff of  17.27, 17.27, 17.95 a.u.
   NGXF,Y,Z  is equivalent  to a cutoff of  34.53, 34.53, 35.91 a.u.

 SYSTEM =  unknown system                          
 POSCAR =   C  O                                   

 Startparameter for this run:
   NWRITE =      2    write-flag & timer
   PREC   = accura    normal or accurate (medium, high low for compatibility)
   ISTART =      0    job   : 0-new  1-cont  2-samecut
   ICHARG =      2    charge: 1-file 2-atom 10-const
   ISPIN  =      1    spin polarized calculation?
   LNONCOLLINEAR =      F non collinear calculations
   LSORBIT =      F    spin-orbit coupling
   INIWAV =      1    electr: 0-lowe 1-rand  2-diag
   LASPH  =      T    aspherical Exc in radial PAW
 Electronic Relaxation 1
   ENCUT  = 1000.0 eV  73.50 Ry    8.57 a.u.  31.78 31.78 64.46*2*pi/ulx,y,z
   ENINI  = 1000.0     initial cutoff
   ENAUG  =  946.8 eV  augmentation charge cutoff
   NELM   =     60;   NELMIN=  2; NELMDL= -5     # of ELM steps 
   EDIFF  = 0.1E-06   stopping-criterion for ELM
   LREAL  =      F    real-space projection
   NLSPLINE    = F    spline interpolate recip. space projectors
   LCOMPAT=      F    compatible to vasp.4.4
   GGA_COMPAT  = T    GGA compatible to vasp.4.4-vasp.4.6
   LMAXPAW     = -100 max onsite density
   LMAXMIX     =    2 max onsite mixed and CHGCAR
   VOSKOWN=      0    Vosko Wilk Nusair interpolation
   ROPT   =    0.00000   0.00000
 Ionic relaxation
   EDIFFG = 0.1E-05   stopping-criterion for IOM
   NSW    =      0    number of steps for IOM
   NBLOCK =      1;   KBLOCK =      1    inner block; outer block 
   IBRION =     -1    ionic relax: 0-MD 1-quasi-New 2-CG
   NFREE  =      0    steps in history (QN), initial steepest desc. (CG)
   ISIF   =      0    stress and relaxation
   IWAVPR =     10    prediction:  0-non 1-charg 2-wave 3-comb
   ISYM   =      2    0-nonsym 1-usesym 2-fastsym
   LCORR  =      T    Harris-Foulkes like correction to forces

   POTIM  = 0.5000    time-step for ionic-motion
   TEIN   =    0.0    initial temperature
   TEBEG  =    0.0;   TEEND  =   0.0 temperature during run
   SMASS  =  -3.00    Nose mass-parameter (am)
   estimated Nose-frequenzy (Omega)   =  0.10E-29 period in steps = 0.13E+47 mass=  -0.347E-26a.u.
   SCALEE = 1.0000    scale energy and forces
   NPACO  =    256;   APACO  = 16.0  distance and # of slots for P.C.
   PSTRESS=    0.0 pullay stress

  Mass of Ions in am
   POMASS =  12.01 16.00
  Ionic Valenz
   ZVAL   =   4.00  6.00
  Atomic Wigner-Seitz radii
   RWIGS  =  -1.00 -1.00
  virtual crystal weights 
   VCA    =   1.00  1.00
   NELECT =     216.0000    total number of electrons
   NUPDOWN=      -1.0000    fix difference up-down

 DOS related values:
   EMIN   =  10.00;   EMAX   =-10.00  energy-range for DOS
   EFERMI =   0.00
   ISMEAR =     0;   SIGMA  =   0.01  broadening in eV -4-tet -1-fermi 0-gaus

 Electronic relaxation 2 (details)
   IALGO  =     58    algorithm
   LDIAG  =      T    sub-space diagonalisation (order eigenvalues)
   LSUBROT=      F    optimize rotation matrix (better conditioning)
   TURBO    =      0    0=normal 1=particle mesh
   IRESTART =      0    0=no restart 2=restart with 2 vectors
   NREBOOT  =      0    no. of reboots
   NMIN     =      0    reboot dimension
   EREF     =   0.00    reference energy to select bands
   IMIX   =      4    mixing-type and parameters
     AMIX     =   0.40;   BMIX     =  1.00
     AMIX_MAG =   1.60;   BMIX_MAG =  1.00
     AMIN     =   0.10
     WC   =   100.;   INIMIX=   1;  MIXPRE=   1;  MAXMIX= -45

 Intra band minimization:
   WEIMIN = 0.0000     energy-eigenvalue tresh-hold
   EBREAK =  0.18E-09  absolut break condition
   DEPER  =   0.30     relativ break condition  

   TIME   =   0.40     timestep for ELM

  volume/ion in A,a.u.               =      62.05       418.76
  Fermi-wavevector in a.u.,A,eV,Ry     =   0.660508  1.248179  5.935820  0.436270
  Thomas-Fermi vector in A             =   1.732977
 
 Write flags
   LWAVE        =      T    write WAVECAR
   LDOWNSAMPLE  =      F    k-point downsampling of WAVECAR
   LCHARG       =      T    write CHGCAR
   LVTOT        =      F    write LOCPOT, total local potential
   LVHAR        =      F    write LOCPOT, Hartree potential only
   LELF         =      F    write electronic localiz. function (ELF)
   LORBIT       =      0    0 simple, 1 ext, 2 COOP (PROOUT), +10 PAW based schemes


 Dipole corrections
   LMONO  =      F    monopole corrections only (constant potential shift)
   LDIPOL =      F    correct potential (dipole corrections)
   IDIPOL =      0    1-x, 2-y, 3-z, 4-all directions 
   EPSILON=  1.0000000 bulk dielectric constant

 Exchange correlation treatment:
   GGA     =    MK    GGA type
   LEXCH   =    43    internal setting for exchange type
   VOSKOWN=      0    Vosko Wilk Nusair interpolation
   LHFCALC =     F    Hartree Fock is set to
   LHFONE  =     F    Hartree Fock one center treatment
   AEXX    =    0.0000 exact exchange contribution

 vdW DFT:
   LUSE_VDW   =     T    switch on vdW DFT
   Zab_VDW    =******    correlation parameter
   PARAM1     =0.1234
   PARAM2     =0.7114
   PARAM3     =0.0000
   -- rVV10 --
   BPARAM     = 6.3000
   CPARAM     = 0.0093

 Linear response parameters
   LEPSILON=     F    determine dielectric tensor
   LRPA    =     F    only Hartree local field effects (RPA)
   LNABLA  =     F    use nabla operator in PAW spheres
   LVEL    =     F    velocity operator in full k-point grid
   LINTERFAST=   F  fast interpolation
   KINTER  =     0    interpolate to denser k-point grid
   CSHIFT  =0.1000    complex shift for real part using Kramers Kronig
   OMEGAMAX=  -1.0    maximum frequency
   DEG_THRESHOLD= 0.2000000E-02 threshold for treating states as degnerate
   RTIME   =   -0.100 relaxation time in fs
  (WPLASMAI=    0.000 imaginary part of plasma frequency in eV, 0.658/RTIME)
   DFIELD  = 0.0000000 0.0000000 0.0000000 field for delta impulse in time
 
 Orbital magnetization related:
   ORBITALMAG=     F  switch on orbital magnetization
   LCHIMAG   =     F  perturbation theory with respect to B field
   DQ        =  0.001000  dq finite difference perturbation B field
   LLRAUG    =     F  two centre corrections for induced B field



--------------------------------------------------------------------------------------------------------


 Static calculation
 charge density and potential will be updated during run
 non-spin polarized calculation
 Conjugate gradient for all bands (Freysoldt, et al. PRB 79, 241103 (2009))
 preconditioned conjugated gradient                                        
 perform sub-space diagonalisation
    before iterative eigenvector-optimisation
 modified Broyden-mixing scheme, WC =      100.0
 initial mixing is a Kerker type mixing with AMIX =  0.4000 and BMIX =      1.0000
 Hartree-type preconditioning will be used
 using additional bands           28
 reciprocal scheme for non local part
 use partial core corrections
 no Harris-corrections to forces 
 use gradient corrections 
 use of overlap-Matrix (Vanderbilt PP)
 Gauss-broadening in eV      SIGMA  =   0.01


--------------------------------------------------------------------------------------------------------


  energy-cutoff  :     1000.00
  volume of cell :     3288.85
      direct lattice vectors                 reciprocal lattice vectors
    12.325000000  0.000000000  0.000000000     0.081135903  0.046843835  0.000000000
    -6.162500000 10.673763102  0.000000000     0.000000000  0.093687670  0.000000000
     0.000000000  0.000000000 25.000000000     0.000000000  0.000000000  0.040000000

  length of vectors
    12.325000000 12.325000000 25.000000000     0.093687670  0.093687670  0.040000000


 
 k-points in units of 2pi/SCALE and weight: auto                                    
   0.00000000  0.00000000  0.00000000       1.000
 
 k-points in reciprocal lattice and weights: auto                                    
   0.00000000  0.00000000  0.00000000       1.000
 
 position of ions in fractional coordinates (direct lattice) 
   0.97245084  0.00032082  0.00056671
   0.03911838  0.13365950  0.00044017
   0.17244363  0.00029545  0.00049963
   0.23909628  0.13364792  0.00025647
   0.97245206  0.20032201  0.00048522
   0.03912836  0.33364377  0.00044415
   0.17245176  0.20035455  0.00021917
   0.23912436  0.33366572  0.00007226
   0.37246557  0.00032440  0.00045391
   0.43913747  0.13361994  0.00025834
   0.97244982  0.40030936  0.00054761
   0.03912498  0.53363679  0.00057341
   0.37241618  0.40032948  0.00000000
   0.43909960  0.53363898  0.00023241
   0.57244368  0.00031213  0.00055958
   0.63911021  0.13363175  0.00054727
   0.97245270  0.60030565  0.00064029
   0.03912449  0.73364036  0.00065451
   0.57243347  0.60030624  0.00040289
   0.63911189  0.73364188  0.00052791
   0.17245463  0.40031823  0.00028904
   0.23912018  0.53363655  0.00037851
   0.37245975  0.20029599  0.00008900
   0.43910710  0.33367342  0.00005576
   0.17245216  0.60031151  0.00052434
   0.23912337  0.73363857  0.00057513
   0.57243108  0.20028917  0.00041330
   0.63911277  0.33361863  0.00046238
   0.37243981  0.60030802  0.00036284
   0.43911609  0.73363786  0.00049419
   0.57246936  0.40032050  0.00033992
   0.63911941  0.53365087  0.00045961
   0.77244572  0.00031543  0.00059616
   0.83911628  0.13364020  0.00057531
   0.77244051  0.20030743  0.00058103
   0.83912024  0.33363573  0.00058547
   0.77244632  0.40029837  0.00058298
   0.83911898  0.53363396  0.00062110
   0.77245614  0.60030817  0.00059571
   0.83911503  0.73364318  0.00063151
   0.97245531  0.80030558  0.00065223
   0.03911471  0.93364329  0.00059805
   0.17245797  0.80031221  0.00062337
   0.23913455  0.93364719  0.00054485
   0.37245140  0.80031667  0.00055140
   0.43912449  0.93364477  0.00054143
   0.57244110  0.80031005  0.00053453
   0.63911507  0.93363899  0.00058764
   0.77244510  0.80031319  0.00060206
   0.83911661  0.93364434  0.00060683
   0.37302101  0.25122688  0.12599210
   0.42087980  0.18931315  0.12856898
   0.32515698  0.31316719  0.12361391
 
 position of ions in cartesian coordinates  (Angst):
  11.98347958  0.00342433  0.01416777
  -0.34154264  1.42664989  0.01100432
   2.12354700  0.00315355  0.01249070
   2.12325634  1.42652621  0.00641170
  10.75098721  2.13818970  0.01213047
  -1.57382270  3.56123457  0.01110375
   0.89078307  2.13853702  0.00547917
   0.89099273  3.56146885  0.00180651
   4.58863896  0.00346260  0.01134782
   4.58893648  1.42622757  0.00645846
   9.51853763  4.27280730  0.01369027
  -2.80632132  5.69591267  0.01433526
   2.12299894  4.27302204  0.00000000
   2.12335237  5.69593607  0.00581036
   7.05344483  0.00333155  0.01398950
   7.05352764  1.42635365  0.01368187
   8.28609598  6.40752033  0.01600723
  -4.03884931  7.83070339  0.01636283
   3.35585531  6.40752662  0.01007237
   3.35598594  7.83071962  0.01319763
  -0.34145776  4.27290193  0.00722612
  -0.34137895  5.69591010  0.00946273
   3.35624236  2.13791198  0.00222492
   3.35573251  3.56155103  0.00139405
  -1.57394684  6.40758280  0.01310850
  -1.57385216  7.83068434  0.01437823
   5.82093107  2.13783916  0.01033241
   5.82114012  3.56096622  0.01155939
   0.89092245  6.40754561  0.00907111
   0.89106251  7.83067670  0.01235474
   4.58870974  4.27292622  0.00849795
   4.58852320  5.69606300  0.01149026
   9.51844972  0.00336679  0.01490402
   9.51855036  1.42644387  0.01438264
   8.28593477  2.13803408  0.01452582
   8.28612680  3.56114872  0.01463668
   7.05356221  4.27268994  0.01457444
   7.05362213  5.69588251  0.01552751
   5.82112285  6.40754723  0.01489279
   5.82101669  7.83073350  0.01578780
   7.05362858  8.54227219  0.01630582
  -5.27148792  9.96548729  0.01495127
  -2.80637951  8.54234295  0.01558431
  -2.80626749  9.96552896  0.01362126
  -0.34148805  8.54239058  0.01378498
  -0.34137657  9.96550309  0.01353576
   2.12342586  8.54231992  0.01336337
   2.12354296  9.96544135  0.01469111
   4.58845581  8.54235337  0.01505154
   4.58852904  9.96549848  0.01517076
   3.04929830  2.68153618  3.14980262
   4.02070129  2.02068374  3.21422448
   2.07766701  3.34267235  3.09034775
 


--------------------------------------------------------------------------------------------------------


 k-point   1 :   0.0000 0.0000 0.0000  plane waves:  236157

 maximum and minimum number of plane-waves per node :      8440     8428

 maximum number of plane-waves:    236157
 maximum index in each direction: 
   IXMAX=   31   IYMAX=   31   IZMAX=   64
   IXMIN=  -31   IYMIN=  -31   IZMIN=  -64


 parallel 3D FFT for wavefunctions:
    minimum data exchange during FFTs selected (reduces bandwidth)
 parallel 3D FFT for charge:
    minimum data exchange during FFTs selected (reduces bandwidth)


 total amount of memory used by VASP MPI-rank0   100580. kBytes
=======================================================================

   base      :      30000. kBytes
   nonl-proj :       8229. kBytes
   fftplans  :      18352. kBytes
   grid      :      30208. kBytes
   one-center:          6. kBytes
   wavefun   :      13785. kBytes
 
     INWAV:  cpu time    0.0000: real time    0.0000
 Broyden mixing: mesh for mixing (old mesh)
   NGX = 63   NGY = 63   NGZ =129
  (NGX  =256   NGY  =256   NGZ  =540)
  gives a total of 512001 points

 initial charge density was supplied:
 charge density of overlapping atoms calculated
 number of electron     216.0000000 magnetization 
 keeping initial charge density in first step


--------------------------------------------------------------------------------------------------------


 Maximum index for augmentation-charges          471 (set IRDMAX)


--------------------------------------------------------------------------------------------------------


 First call to EWALD:  gamma=   0.119
 Maximum number of real-space cells 4x 4x 2
 Maximum number of reciprocal cells 2x 2x 4

    FEWALD:  cpu time    0.0027: real time    0.0028


--------------------------------------- Iteration      1(   1)  ---------------------------------------


vdW kernel read from vdw_kernel.bindat
  0.0000  0.2424  0.5071  0.7962  1.1119  1.4567  1.8333  2.2446  2.6937  3.1842
  3.7199  4.3049  4.9438  5.6415  6.4036  7.2358  8.1446  9.1372 10.2212 11.4050
 12.6979 14.1099 15.6519 17.3360 19.1751 21.1837 23.3773 25.7729 28.3892 31.2465
 34.3669 37.7748 41.4965 45.5611 50.0000
 
    POTLOK:  cpu time    4.5886: real time    4.6288
    SETDIJ:  cpu time    0.0556: real time    0.0558
    TRIAL :  cpu time    2.0984: real time    2.1194
    CORREC:  cpu time    0.0005: real time    0.0005
    --------------------------------------------
      LOOP:  cpu time    6.7481: real time    6.8267

 eigenvalue-minimisations  :   288
 total energy-change (2. order) : 0.2766905E+04  (-0.1020279E+05)
 number of electron     216.0000000 magnetization 
 augmentation part      216.0000000 magnetization 

 Free energy of the ion-electron system (eV)
  ---------------------------------------------------
  alpha Z        PSCENC =        47.94900195
  Ewald energy   TEWEN  =     47538.22437387
  -Hartree energ DENC   =    -53606.79122026
  -exchange      EXHF   =         0.00000000
  -V(xc)+E(xc)   XCENC  =       412.54714308
  PAW double counting   =      6548.36373666    -6261.59511771
  entropy T*S    EENTRO =        -0.00000000
  eigenvalues    EBANDS =      -332.73906659
  atomic energy  EATOM  =      8420.94593319
  ---------------------------------------------------
  free energy    TOTEN  =      2766.90478420 eV

  energy without entropy =     2766.90478420  energy(sigma->0) =     2766.90478420


--------------------------------------------------------------------------------------------------------




--------------------------------------- Iteration      1(   2)  ---------------------------------------


    TRIAL :  cpu time    2.8806: real time    2.9073
    CORREC:  cpu time    0.0001: real time    0.0001
    --------------------------------------------
      LOOP:  cpu time    2.9609: real time    2.9913

 eigenvalue-minimisations  :   448
 total energy-change (2. order) :-0.2328785E+04  (-0.2182384E+04)
 number of electron     216.0000000 magnetization 
 augmentation part      216.0000000 magnetization 

 Free energy of the ion-electron system (eV)
  ---------------------------------------------------
  alpha Z        PSCENC =        47.94900195
  Ewald energy   TEWEN  =     47538.22437387
  -Hartree energ DENC   =    -53606.79122026
  -exchange      EXHF   =         0.00000000
  -V(xc)+E(xc)   XCENC  =       412.54714308
  PAW double counting   =      6548.36373666    -6261.59511771
  entropy T*S    EENTRO =        -0.00000000
  eigenvalues    EBANDS =     -2661.52357344
  atomic energy  EATOM  =      8420.94593319
  ---------------------------------------------------
  free energy    TOTEN  =       438.12027734 eV

  energy without entropy =      438.12027734  energy(sigma->0) =      438.12027734


--------------------------------------------------------------------------------------------------------




--------------------------------------- Iteration      1(   3)  ---------------------------------------


    TRIAL :  cpu time    2.3838: real time    2.4046
    CORREC:  cpu time    0.0001: real time    0.0001
    --------------------------------------------
      LOOP:  cpu time    2.4182: real time    2.4426

 eigenvalue-minimisations  :   352
 total energy-change (2. order) :-0.8187912E+03  (-0.8048050E+03)
 number of electron     216.0000000 magnetization 
 augmentation part      216.0000000 magnetization 

 Free energy of the ion-electron system (eV)
  ---------------------------------------------------
  alpha Z        PSCENC =        47.94900195
  Ewald energy   TEWEN  =     47538.22437387
  -Hartree energ DENC   =    -53606.79122026
  -exchange      EXHF   =         0.00000000
  -V(xc)+E(xc)   XCENC  =       412.54714308
  PAW double counting   =      6548.36373666    -6261.59511771
  entropy T*S    EENTRO =        -0.00000000
  eigenvalues    EBANDS =     -3480.31474380
  atomic energy  EATOM  =      8420.94593319
  ---------------------------------------------------
  free energy    TOTEN  =      -380.67089302 eV

  energy without entropy =     -380.67089302  energy(sigma->0) =     -380.67089302


--------------------------------------------------------------------------------------------------------




--------------------------------------- Iteration      1(   4)  ---------------------------------------


    TRIAL :  cpu time    2.2700: real time    2.2898
    CORREC:  cpu time    0.0001: real time    0.0001
    --------------------------------------------
      LOOP:  cpu time    2.3084: real time    2.3292

 eigenvalue-minimisations  :   328
 total energy-change (2. order) :-0.7733390E+02  (-0.7621967E+02)
 number of electron     216.0000000 magnetization 
 augmentation part      216.0000000 magnetization 

 Free energy of the ion-electron system (eV)
  ---------------------------------------------------
  alpha Z        PSCENC =        47.94900195
  Ewald energy   TEWEN  =     47538.22437387
  -Hartree energ DENC   =    -53606.79122026
  -exchange      EXHF   =         0.00000000
  -V(xc)+E(xc)   XCENC  =       412.54714308
  PAW double counting   =      6548.36373666    -6261.59511771
  entropy T*S    EENTRO =        -0.00000000
  eigenvalues    EBANDS =     -3557.64863915
  atomic energy  EATOM  =      8420.94593319
  ---------------------------------------------------
  free energy    TOTEN  =      -458.00478836 eV

  energy without entropy =     -458.00478836  energy(sigma->0) =     -458.00478836


--------------------------------------------------------------------------------------------------------




--------------------------------------- Iteration      1(   5)  ---------------------------------------


    TRIAL :  cpu time    2.3803: real time    2.4018
    CORREC:  cpu time    0.0001: real time    0.0001
    CHARGE:  cpu time    0.1813: real time    0.1837
    --------------------------------------------
      LOOP:  cpu time    2.6117: real time    2.6394

 eigenvalue-minimisations  :   352
 total energy-change (2. order) :-0.2314774E+01  (-0.2295700E+01)
 number of electron     216.0000000 magnetization 
 augmentation part       -0.2339849 magnetization 

 Free energy of the ion-electron system (eV)
  ---------------------------------------------------
  alpha Z        PSCENC =        47.94900195
  Ewald energy   TEWEN  =     47538.22437387
  -Hartree energ DENC   =    -53606.79122026
  -exchange      EXHF   =         0.00000000
  -V(xc)+E(xc)   XCENC  =       412.54714308
  PAW double counting   =      6548.36373666    -6261.59511771
  entropy T*S    EENTRO =        -0.00000000
  eigenvalues    EBANDS =     -3559.96341339
  atomic energy  EATOM  =      8420.94593319
  ---------------------------------------------------
  free energy    TOTEN  =      -460.31956261 eV

  energy without entropy =     -460.31956261  energy(sigma->0) =     -460.31956261


--------------------------------------------------------------------------------------------------------




--------------------------------------- Iteration      1(   6)  ---------------------------------------


    POTLOK:  cpu time    4.2741: real time    4.3043
    SETDIJ:  cpu time    0.0540: real time    0.0542
    TRIAL :  cpu time    1.1676: real time    1.1787
    CORREC:  cpu time    4.7750: real time    4.8106
    CHARGE:  cpu time    0.1794: real time    0.1813
    --------------------------------------------
      LOOP:  cpu time   10.5056: real time   10.5879

 eigenvalue-minimisations  :     0
 total energy-change (2. order) : 0.5200345E+02  (-0.1623399E+02)
 number of electron     216.0000000 magnetization 
 augmentation part       -0.3300536 magnetization 

 Free energy of the ion-electron system (eV)
  ---------------------------------------------------
  alpha Z        PSCENC =        47.94900195
  Ewald energy   TEWEN  =     47538.22437387
  -Hartree energ DENC   =    -55047.77991500
  -exchange      EXHF   =         0.00000000
  -V(xc)+E(xc)   XCENC  =       459.93929923
  PAW double counting   =     80556.46599890   -80276.07410415
  entropy T*S    EENTRO =        -0.00000000
  eigenvalues    EBANDS =     -2107.98669608
  atomic energy  EATOM  =      8420.94593319
  ---------------------------------------------------
  free energy    TOTEN  =      -408.31610809 eV

  energy without entropy =     -408.31610809  energy(sigma->0) =     -408.31610809


--------------------------------------------------------------------------------------------------------




--------------------------------------- Iteration      1(   7)  ---------------------------------------


    POTLOK:  cpu time    4.2689: real time    4.2993
    SETDIJ:  cpu time    0.0539: real time    0.0541
    TRIAL :  cpu time    1.1616: real time    1.1723
    CORREC:  cpu time    4.7624: real time    4.7985
    CHARGE:  cpu time    0.1791: real time    0.1810
    --------------------------------------------
      LOOP:  cpu time   10.5074: real time   10.5874

 eigenvalue-minimisations  :     0
 total energy-change (2. order) :-0.1627565E+02  (-0.1786790E+01)
 number of electron     216.0000000 magnetization 
 augmentation part       -0.3758554 magnetization 

 Free energy of the ion-electron system (eV)
  ---------------------------------------------------
  alpha Z        PSCENC =        47.94900195
  Ewald energy   TEWEN  =     47538.22437387
  -Hartree energ DENC   =    -54521.39294924
  -exchange      EXHF   =         0.00000000
  -V(xc)+E(xc)   XCENC  =       442.69619110
  PAW double counting   =     95629.27104242   -95346.15706866
  entropy T*S    EENTRO =        -0.00000000
  eigenvalues    EBANDS =     -2636.12828699
  atomic energy  EATOM  =      8420.94593319
  ---------------------------------------------------
  free energy    TOTEN  =      -424.59176235 eV

  energy without entropy =     -424.59176235  energy(sigma->0) =     -424.59176235


--------------------------------------------------------------------------------------------------------




--------------------------------------- Iteration      1(   8)  ---------------------------------------


    POTLOK:  cpu time    4.2668: real time    4.2977
    SETDIJ:  cpu time    0.0540: real time    0.0542
    TRIAL :  cpu time    1.1784: real time    1.1906
    CORREC:  cpu time    4.7506: real time    4.7905
    CHARGE:  cpu time    0.1802: real time    0.1820
    --------------------------------------------
      LOOP:  cpu time   10.5177: real time   10.6048

 eigenvalue-minimisations  :     0
 total energy-change (2. order) :-0.1786698E+01  (-0.4959358E+00)
 number of electron     216.0000000 magnetization 
 augmentation part       -0.3931259 magnetization 

 Free energy of the ion-electron system (eV)
  ---------------------------------------------------
  alpha Z        PSCENC =        47.94900195
  Ewald energy   TEWEN  =     47538.22437387
  -Hartree energ DENC   =    -54501.29868311
  -exchange      EXHF   =         0.00000000
  -V(xc)+E(xc)   XCENC  =       442.28604189
  PAW double counting   =     99673.09061866   -99389.65640556
  entropy T*S    EENTRO =        -0.00000000
  eigenvalues    EBANDS =     -2657.91934100
  atomic energy  EATOM  =      8420.94593319
  ---------------------------------------------------
  free energy    TOTEN  =      -426.37846010 eV

  energy without entropy =     -426.37846010  energy(sigma->0) =     -426.37846010


--------------------------------------------------------------------------------------------------------




--------------------------------------- Iteration      1(   9)  ---------------------------------------


    POTLOK:  cpu time    4.2746: real time    4.3096
    SETDIJ:  cpu time    0.0540: real time    0.0542
    TRIAL :  cpu time    1.1609: real time    1.1724
    CORREC:  cpu time    4.7341: real time    4.7711
    CHARGE:  cpu time    0.1796: real time    0.1813
    --------------------------------------------
      LOOP:  cpu time   10.4550: real time   10.5707

 eigenvalue-minimisations  :     0
 total energy-change (2. order) :-0.4958169E+00  (-0.1901591E+00)
 number of electron     216.0000000 magnetization 
 augmentation part       -0.4013691 magnetization 

 Free energy of the ion-electron system (eV)
  ---------------------------------------------------
  alpha Z        PSCENC =        47.94900195
  Ewald energy   TEWEN  =     47538.22437387
  -Hartree energ DENC   =    -54514.25648057
  -exchange      EXHF   =         0.00000000
  -V(xc)+E(xc)   XCENC  =       442.44017892
  PAW double counting   =    102378.58980930  -102095.01346002
  entropy T*S    EENTRO =        -0.00000000
  eigenvalues    EBANDS =     -2645.75363363
  atomic energy  EATOM  =      8420.94593319
  ---------------------------------------------------
  free energy    TOTEN  =      -426.87427699 eV

  energy without entropy =     -426.87427699  energy(sigma->0) =     -426.87427699


--------------------------------------------------------------------------------------------------------




--------------------------------------- Iteration      1(  10)  ---------------------------------------


    POTLOK:  cpu time    4.3111: real time    4.3418
    SETDIJ:  cpu time    0.0548: real time    0.0550
    TRIAL :  cpu time    1.1601: real time    1.1713
    CORREC:  cpu time    4.7436: real time    4.7868
    CHARGE:  cpu time    0.1791: real time    0.1814
    --------------------------------------------
      LOOP:  cpu time   10.4987: real time   10.5898

 eigenvalue-minimisations  :     0
 total energy-change (2. order) :-0.1896281E+00  (-0.8951784E-01)
 number of electron     216.0000000 magnetization 
 augmentation part       -0.4019857 magnetization 

 Free energy of the ion-electron system (eV)
  ---------------------------------------------------
  alpha Z        PSCENC =        47.94900195
  Ewald energy   TEWEN  =     47538.22437387
  -Hartree energ DENC   =    -54511.18026277
  -exchange      EXHF   =         0.00000000
  -V(xc)+E(xc)   XCENC  =       442.29834807
  PAW double counting   =    102957.83662443  -102674.17241827
  entropy T*S    EENTRO =        -0.00000000
  eigenvalues    EBANDS =     -2648.96550555
  atomic energy  EATOM  =      8420.94593319
  ---------------------------------------------------
  free energy    TOTEN  =      -427.06390508 eV

  energy without entropy =     -427.06390508  energy(sigma->0) =     -427.06390508


--------------------------------------------------------------------------------------------------------




--------------------------------------- Iteration      1(  11)  ---------------------------------------


    POTLOK:  cpu time    4.2716: real time    4.3084
    SETDIJ:  cpu time    0.0538: real time    0.0540
    TRIAL :  cpu time    1.1597: real time    1.1754
    CORREC:  cpu time    4.7575: real time    4.8007
    CHARGE:  cpu time    0.1795: real time    0.1817
    --------------------------------------------
      LOOP:  cpu time   10.4381: real time   10.5651

 eigenvalue-minimisations  :     0
 total energy-change (2. order) :-0.8902474E-01  (-0.3581516E-01)
 number of electron     216.0000000 magnetization 
 augmentation part       -0.4011400 magnetization 

 Free energy of the ion-electron system (eV)
  ---------------------------------------------------
  alpha Z        PSCENC =        47.94900195
  Ewald energy   TEWEN  =     47538.22437387
  -Hartree energ DENC   =    -54504.03327615
  -exchange      EXHF   =         0.00000000
  -V(xc)+E(xc)   XCENC  =       442.18593486
  PAW double counting   =    102519.57961200  -102235.91937073
  entropy T*S    EENTRO =        -0.00000000
  eigenvalues    EBANDS =     -2656.08513881
  atomic energy  EATOM  =      8420.94593319
  ---------------------------------------------------
  free energy    TOTEN  =      -427.15292982 eV

  energy without entropy =     -427.15292982  energy(sigma->0) =     -427.15292982


--------------------------------------------------------------------------------------------------------




--------------------------------------- Iteration      1(  12)  ---------------------------------------


    POTLOK:  cpu time    4.2706: real time    4.3195
    SETDIJ:  cpu time    0.0539: real time    0.0541
    TRIAL :  cpu time    1.1604: real time    1.1740
    CORREC:  cpu time    4.7614: real time    4.8071
    CHARGE:  cpu time    0.1784: real time    0.1806
    --------------------------------------------
      LOOP:  cpu time   10.4454: real time   10.5748

 eigenvalue-minimisations  :     0
 total energy-change (2. order) :-0.3570077E-01  (-0.1123207E-01)
 number of electron     216.0000000 magnetization 
 augmentation part       -0.4008130 magnetization 

 Free energy of the ion-electron system (eV)
  ---------------------------------------------------
  alpha Z        PSCENC =        47.94900195
  Ewald energy   TEWEN  =     47538.22437387
  -Hartree energ DENC   =    -54500.51528344
  -exchange      EXHF   =         0.00000000
  -V(xc)+E(xc)   XCENC  =       442.11431669
  PAW double counting   =    102144.26141526  -101860.62647056
  entropy T*S    EENTRO =        -0.00000000
  eigenvalues    EBANDS =     -2659.54191756
  atomic energy  EATOM  =      8420.94593319
  ---------------------------------------------------
  free energy    TOTEN  =      -427.18863059 eV

  energy without entropy =     -427.18863059  energy(sigma->0) =     -427.18863059


--------------------------------------------------------------------------------------------------------




--------------------------------------- Iteration      1(  13)  ---------------------------------------


    POTLOK:  cpu time    4.2626: real time    4.3004
    SETDIJ:  cpu time    0.0538: real time    0.0540
    TRIAL :  cpu time    1.1591: real time    1.1725
    CORREC:  cpu time    4.7349: real time    4.7806
    CHARGE:  cpu time    0.1787: real time    0.1805
    --------------------------------------------
      LOOP:  cpu time   10.4624: real time   10.5625

 eigenvalue-minimisations  :     0
 total energy-change (2. order) :-0.1122790E-01  (-0.3458288E-02)
 number of electron     216.0000000 magnetization 
 augmentation part       -0.4001679 magnetization 

 Free energy of the ion-electron system (eV)
  ---------------------------------------------------
  alpha Z        PSCENC =        47.94900195
  Ewald energy   TEWEN  =     47538.22437387
  -Hartree energ DENC   =    -54500.07847904
  -exchange      EXHF   =         0.00000000
  -V(xc)+E(xc)   XCENC  =       442.09889878
  PAW double counting   =    101992.57098629  -101708.94920778
  entropy T*S    EENTRO =        -0.00000000
  eigenvalues    EBANDS =     -2659.96136575
  atomic energy  EATOM  =      8420.94593319
  ---------------------------------------------------
  free energy    TOTEN  =      -427.19985849 eV

  energy without entropy =     -427.19985849  energy(sigma->0) =     -427.19985849


--------------------------------------------------------------------------------------------------------




--------------------------------------- Iteration      1(  14)  ---------------------------------------


    POTLOK:  cpu time    4.2965: real time    4.3279
    SETDIJ:  cpu time    0.0539: real time    0.0541
    TRIAL :  cpu time    1.1585: real time    1.1696
    CORREC:  cpu time    4.7511: real time    4.7902
    CHARGE:  cpu time    0.1791: real time    0.1810
    --------------------------------------------
      LOOP:  cpu time   10.5028: real time   10.5867

 eigenvalue-minimisations  :     0
 total energy-change (2. order) :-0.3460796E-02  (-0.1344898E-02)
 number of electron     216.0000000 magnetization 
 augmentation part       -0.3998002 magnetization 

 Free energy of the ion-electron system (eV)
  ---------------------------------------------------
  alpha Z        PSCENC =        47.94900195
  Ewald energy   TEWEN  =     47538.22437387
  -Hartree energ DENC   =    -54500.21852901
  -exchange      EXHF   =         0.00000000
  -V(xc)+E(xc)   XCENC  =       442.10025266
  PAW double counting   =    101973.17060893  -101689.55441911
  entropy T*S    EENTRO =        -0.00000000
  eigenvalues    EBANDS =     -2659.82054177
  atomic energy  EATOM  =      8420.94593319
  ---------------------------------------------------
  free energy    TOTEN  =      -427.20331929 eV

  energy without entropy =     -427.20331929  energy(sigma->0) =     -427.20331929


--------------------------------------------------------------------------------------------------------




--------------------------------------- Iteration      1(  15)  ---------------------------------------


    POTLOK:  cpu time    4.2739: real time    4.3049
    SETDIJ:  cpu time    0.0539: real time    0.0541
    TRIAL :  cpu time    1.1591: real time    1.1706
    CORREC:  cpu time    4.7566: real time    4.7955
    CHARGE:  cpu time    0.1795: real time    0.1814
    --------------------------------------------
      LOOP:  cpu time   10.4528: real time   10.5419

 eigenvalue-minimisations  :     0
 total energy-change (2. order) :-0.1348443E-02  (-0.7387676E-03)
 number of electron     216.0000000 magnetization 
 augmentation part       -0.3993706 magnetization 

 Free energy of the ion-electron system (eV)
  ---------------------------------------------------
  alpha Z        PSCENC =        47.94900195
  Ewald energy   TEWEN  =     47538.22437387
  -Hartree energ DENC   =    -54499.90246895
  -exchange      EXHF   =         0.00000000
  -V(xc)+E(xc)   XCENC  =       442.08405576
  PAW double counting   =    101962.90032824  -101679.28281663
  entropy T*S    EENTRO =        -0.00000000
  eigenvalues    EBANDS =     -2660.12307516
  atomic energy  EATOM  =      8420.94593319
  ---------------------------------------------------
  free energy    TOTEN  =      -427.20466773 eV

  energy without entropy =     -427.20466773  energy(sigma->0) =     -427.20466773


--------------------------------------------------------------------------------------------------------




--------------------------------------- Iteration      1(  16)  ---------------------------------------


    POTLOK:  cpu time    4.3069: real time    4.3375
    SETDIJ:  cpu time    0.0538: real time    0.0540
    TRIAL :  cpu time    1.1587: real time    1.1707
    CORREC:  cpu time    4.7516: real time    4.7918
    CHARGE:  cpu time    0.1791: real time    0.1808
    --------------------------------------------
      LOOP:  cpu time   10.4943: real time   10.5838

 eigenvalue-minimisations  :     0
 total energy-change (2. order) :-0.7410194E-03  (-0.4085087E-03)
 number of electron     216.0000000 magnetization 
 augmentation part       -0.3992258 magnetization 

 Free energy of the ion-electron system (eV)
  ---------------------------------------------------
  alpha Z        PSCENC =        47.94900195
  Ewald energy   TEWEN  =     47538.22437387
  -Hartree energ DENC   =    -54500.26182610
  -exchange      EXHF   =         0.00000000
  -V(xc)+E(xc)   XCENC  =       442.09552179
  PAW double counting   =    101903.45489513  -101619.83864854
  entropy T*S    EENTRO =        -0.00000000
  eigenvalues    EBANDS =     -2659.77466006
  atomic energy  EATOM  =      8420.94593319
  ---------------------------------------------------
  free energy    TOTEN  =      -427.20540875 eV

  energy without entropy =     -427.20540875  energy(sigma->0) =     -427.20540875


--------------------------------------------------------------------------------------------------------




--------------------------------------- Iteration      1(  17)  ---------------------------------------


    POTLOK:  cpu time    4.2695: real time    4.2988
    SETDIJ:  cpu time    0.0538: real time    0.0540
    TRIAL :  cpu time    1.1597: real time    1.1705
    CORREC:  cpu time    4.7432: real time    4.7862
    CHARGE:  cpu time    0.1762: real time    0.1779
    --------------------------------------------
      LOOP:  cpu time   10.4617: real time   10.5487

 eigenvalue-minimisations  :     0
 total energy-change (2. order) :-0.4091344E-03  (-0.1741444E-03)
 number of electron     216.0000000 magnetization 
 augmentation part       -0.3993575 magnetization 

 Free energy of the ion-electron system (eV)
  ---------------------------------------------------
  alpha Z        PSCENC =        47.94900195
  Ewald energy   TEWEN  =     47538.22437387
  -Hartree energ DENC   =    -54500.54407156
  -exchange      EXHF   =         0.00000000
  -V(xc)+E(xc)   XCENC  =       442.10242750
  PAW double counting   =    101847.39184578  -101563.77519473
  entropy T*S    EENTRO =        -0.00000000
  eigenvalues    EBANDS =     -2659.50013388
  atomic energy  EATOM  =      8420.94593319
  ---------------------------------------------------
  free energy    TOTEN  =      -427.20581789 eV

  energy without entropy =     -427.20581789  energy(sigma->0) =     -427.20581789


--------------------------------------------------------------------------------------------------------




--------------------------------------- Iteration      1(  18)  ---------------------------------------


    POTLOK:  cpu time    4.2890: real time    4.3182
    SETDIJ:  cpu time    0.0541: real time    0.0542
    TRIAL :  cpu time    1.1592: real time    1.1701
    CORREC:  cpu time    4.7392: real time    4.7739
    CHARGE:  cpu time    0.1795: real time    0.1813
    --------------------------------------------
      LOOP:  cpu time   10.4407: real time   10.5288

 eigenvalue-minimisations  :     0
 total energy-change (2. order) :-0.1739383E-03  (-0.6794309E-04)
 number of electron     216.0000000 magnetization 
 augmentation part       -0.3995093 magnetization 

 Free energy of the ion-electron system (eV)
  ---------------------------------------------------
  alpha Z        PSCENC =        47.94900195
  Ewald energy   TEWEN  =     47538.22437387
  -Hartree energ DENC   =    -54500.54342447
  -exchange      EXHF   =         0.00000000
  -V(xc)+E(xc)   XCENC  =       442.10208314
  PAW double counting   =    101842.91363807  -101559.29566450
  entropy T*S    EENTRO =        -0.00000000
  eigenvalues    EBANDS =     -2659.50193308
  atomic energy  EATOM  =      8420.94593319
  ---------------------------------------------------
  free energy    TOTEN  =      -427.20599182 eV

  energy without entropy =     -427.20599182  energy(sigma->0) =     -427.20599182


--------------------------------------------------------------------------------------------------------




--------------------------------------- Iteration      1(  19)  ---------------------------------------


    POTLOK:  cpu time    4.3358: real time    4.3746
    SETDIJ:  cpu time    0.0539: real time    0.0541
    TRIAL :  cpu time    1.1579: real time    1.1727
    CORREC:  cpu time    4.7414: real time    4.7831
    CHARGE:  cpu time    0.1816: real time    0.1836
    --------------------------------------------
      LOOP:  cpu time   10.5332: real time   10.6662

 eigenvalue-minimisations  :     0
 total energy-change (2. order) :-0.6751849E-04  (-0.2954297E-04)
 number of electron     216.0000000 magnetization 
 augmentation part       -0.3996143 magnetization 

 Free energy of the ion-electron system (eV)
  ---------------------------------------------------
  alpha Z        PSCENC =        47.94900195
  Ewald energy   TEWEN  =     47538.22437387
  -Hartree energ DENC   =    -54500.56892898
  -exchange      EXHF   =         0.00000000
  -V(xc)+E(xc)   XCENC  =       442.10325806
  PAW double counting   =    101862.26088631  -101578.64246036
  entropy T*S    EENTRO =        -0.00000000
  eigenvalues    EBANDS =     -2659.47812339
  atomic energy  EATOM  =      8420.94593319
  ---------------------------------------------------
  free energy    TOTEN  =      -427.20605934 eV

  energy without entropy =     -427.20605934  energy(sigma->0) =     -427.20605934


--------------------------------------------------------------------------------------------------------




--------------------------------------- Iteration      1(  20)  ---------------------------------------


    POTLOK:  cpu time    4.3049: real time    4.3362
    SETDIJ:  cpu time    0.0539: real time    0.0541
    TRIAL :  cpu time    1.1681: real time    1.1811
    CORREC:  cpu time    4.8319: real time    4.8717
    CHARGE:  cpu time    0.1794: real time    0.1812
    --------------------------------------------
      LOOP:  cpu time   10.6238: real time   10.7141

 eigenvalue-minimisations  :     0
 total energy-change (2. order) :-0.2921063E-04  (-0.1436186E-04)
 number of electron     216.0000000 magnetization 
 augmentation part       -0.3996109 magnetization 

 Free energy of the ion-electron system (eV)
  ---------------------------------------------------
  alpha Z        PSCENC =        47.94900195
  Ewald energy   TEWEN  =     47538.22437387
  -Hartree energ DENC   =    -54500.52481605
  -exchange      EXHF   =         0.00000000
  -V(xc)+E(xc)   XCENC  =       442.10166383
  PAW double counting   =    101877.80784892  -101594.18915179
  entropy T*S    EENTRO =        -0.00000000
  eigenvalues    EBANDS =     -2659.52094247
  atomic energy  EATOM  =      8420.94593319
  ---------------------------------------------------
  free energy    TOTEN  =      -427.20608855 eV

  energy without entropy =     -427.20608855  energy(sigma->0) =     -427.20608855


--------------------------------------------------------------------------------------------------------




--------------------------------------- Iteration      1(  21)  ---------------------------------------


    POTLOK:  cpu time    4.2547: real time    4.2860
    SETDIJ:  cpu time    0.0540: real time    0.0541
    TRIAL :  cpu time    1.1594: real time    1.1704
    CORREC:  cpu time    4.7506: real time    4.7876
    CHARGE:  cpu time    0.1788: real time    0.1806
    --------------------------------------------
      LOOP:  cpu time   10.4461: real time   10.5316

 eigenvalue-minimisations  :     0
 total energy-change (2. order) :-0.1423848E-04  (-0.7311685E-05)
 number of electron     216.0000000 magnetization 
 augmentation part       -0.3996008 magnetization 

 Free energy of the ion-electron system (eV)
  ---------------------------------------------------
  alpha Z        PSCENC =        47.94900195
  Ewald energy   TEWEN  =     47538.22437387
  -Hartree energ DENC   =    -54500.51988144
  -exchange      EXHF   =         0.00000000
  -V(xc)+E(xc)   XCENC  =       442.10203270
  PAW double counting   =    101882.91952367  -101599.30123682
  entropy T*S    EENTRO =        -0.00000000
  eigenvalues    EBANDS =     -2659.52584991
  atomic energy  EATOM  =      8420.94593319
  ---------------------------------------------------
  free energy    TOTEN  =      -427.20610279 eV

  energy without entropy =     -427.20610279  energy(sigma->0) =     -427.20610279


--------------------------------------------------------------------------------------------------------




--------------------------------------- Iteration      1(  22)  ---------------------------------------


    POTLOK:  cpu time    4.2623: real time    4.2931
    SETDIJ:  cpu time    0.0539: real time    0.0541
    TRIAL :  cpu time    1.1595: real time    1.1707
    CORREC:  cpu time    4.7350: real time    4.7729
    CHARGE:  cpu time    0.1790: real time    0.1808
    --------------------------------------------
      LOOP:  cpu time   10.4670: real time   10.5642

 eigenvalue-minimisations  :     0
 total energy-change (2. order) :-0.7307666E-05  (-0.3278823E-05)
 number of electron     216.0000000 magnetization 
 augmentation part       -0.3995790 magnetization 

 Free energy of the ion-electron system (eV)
  ---------------------------------------------------
  alpha Z        PSCENC =        47.94900195
  Ewald energy   TEWEN  =     47538.22437387
  -Hartree energ DENC   =    -54500.47557823
  -exchange      EXHF   =         0.00000000
  -V(xc)+E(xc)   XCENC  =       442.10076810
  PAW double counting   =    101881.59790784  -101597.97968485
  entropy T*S    EENTRO =        -0.00000000
  eigenvalues    EBANDS =     -2659.56883197
  atomic energy  EATOM  =      8420.94593319
  ---------------------------------------------------
  free energy    TOTEN  =      -427.20611010 eV

  energy without entropy =     -427.20611010  energy(sigma->0) =     -427.20611010


--------------------------------------------------------------------------------------------------------




--------------------------------------- Iteration      1(  23)  ---------------------------------------


    POTLOK:  cpu time    4.2629: real time    4.2970
    SETDIJ:  cpu time    0.0539: real time    0.0541
    TRIAL :  cpu time    1.1592: real time    1.1726
    CORREC:  cpu time    4.7362: real time    4.7750
    CHARGE:  cpu time    0.1795: real time    0.1813
    --------------------------------------------
      LOOP:  cpu time   10.4566: real time   10.5470

 eigenvalue-minimisations  :     0
 total energy-change (2. order) :-0.3301786E-05  (-0.1233331E-05)
 number of electron     216.0000000 magnetization 
 augmentation part       -0.3995710 magnetization 

 Free energy of the ion-electron system (eV)
  ---------------------------------------------------
  alpha Z        PSCENC =        47.94900195
  Ewald energy   TEWEN  =     47538.22437387
  -Hartree energ DENC   =    -54500.46770418
  -exchange      EXHF   =         0.00000000
  -V(xc)+E(xc)   XCENC  =       442.10083753
  PAW double counting   =    101879.04221365  -101595.42410152
  entropy T*S    EENTRO =        -0.00000000
  eigenvalues    EBANDS =     -2659.57666790
  atomic energy  EATOM  =      8420.94593319
  ---------------------------------------------------
  free energy    TOTEN  =      -427.20611340 eV

  energy without entropy =     -427.20611340  energy(sigma->0) =     -427.20611340


--------------------------------------------------------------------------------------------------------




--------------------------------------- Iteration      1(  24)  ---------------------------------------


    POTLOK:  cpu time    4.2633: real time    4.2934
    SETDIJ:  cpu time    0.0540: real time    0.0542
    TRIAL :  cpu time    1.1595: real time    1.1705
    CORREC:  cpu time    4.7390: real time    4.7749
    CHARGE:  cpu time    0.1780: real time    0.1797
    --------------------------------------------
      LOOP:  cpu time   10.4650: real time   10.5806

 eigenvalue-minimisations  :     0
 total energy-change (2. order) :-0.1250257E-05  (-0.5323685E-06)
 number of electron     216.0000000 magnetization 
 augmentation part       -0.3995726 magnetization 

 Free energy of the ion-electron system (eV)
  ---------------------------------------------------
  alpha Z        PSCENC =        47.94900195
  Ewald energy   TEWEN  =     47538.22437387
  -Hartree energ DENC   =    -54500.46505854
  -exchange      EXHF   =         0.00000000
  -V(xc)+E(xc)   XCENC  =       442.10096659
  PAW double counting   =    101877.97472235  -101594.35661546
  entropy T*S    EENTRO =        -0.00000000
  eigenvalues    EBANDS =     -2659.57943861
  atomic energy  EATOM  =      8420.94593319
  ---------------------------------------------------
  free energy    TOTEN  =      -427.20611465 eV

  energy without entropy =     -427.20611465  energy(sigma->0) =     -427.20611465


--------------------------------------------------------------------------------------------------------




--------------------------------------- Iteration      1(  25)  ---------------------------------------


    POTLOK:  cpu time    4.2647: real time    4.2970
    SETDIJ:  cpu time    0.0540: real time    0.0542
    TRIAL :  cpu time    1.1745: real time    1.1860
    CORREC:  cpu time    4.7968: real time    4.8371
    CHARGE:  cpu time    0.1793: real time    0.1812
    --------------------------------------------
      LOOP:  cpu time   10.5187: real time   10.6087

 eigenvalue-minimisations  :     0
 total energy-change (2. order) :-0.5412876E-06  (-0.2594254E-06)
 number of electron     216.0000000 magnetization 
 augmentation part       -0.3995697 magnetization 

 Free energy of the ion-electron system (eV)
  ---------------------------------------------------
  alpha Z        PSCENC =        47.94900195
  Ewald energy   TEWEN  =     47538.22437387
  -Hartree energ DENC   =    -54500.46215428
  -exchange      EXHF   =         0.00000000
  -V(xc)+E(xc)   XCENC  =       442.10085497
  PAW double counting   =    101877.85360008  -101594.23543124
  entropy T*S    EENTRO =        -0.00000000
  eigenvalues    EBANDS =     -2659.58229374
  atomic energy  EATOM  =      8420.94593319
  ---------------------------------------------------
  free energy    TOTEN  =      -427.20611519 eV

  energy without entropy =     -427.20611519  energy(sigma->0) =     -427.20611519


--------------------------------------------------------------------------------------------------------




--------------------------------------- Iteration      1(  26)  ---------------------------------------


    POTLOK:  cpu time    4.2819: real time    4.3146
    SETDIJ:  cpu time    0.0588: real time    0.0590
    TRIAL :  cpu time    1.1609: real time    1.1721
    CORREC:  cpu time    4.7394: real time    4.7790
    CHARGE:  cpu time    0.1789: real time    0.1807
    --------------------------------------------
      LOOP:  cpu time   10.4578: real time   10.5587

 eigenvalue-minimisations  :     0
 total energy-change (2. order) :-0.2620945E-06  (-0.1121111E-06)
 number of electron     216.0000000 magnetization 
 augmentation part       -0.3995702 magnetization 

 Free energy of the ion-electron system (eV)
  ---------------------------------------------------
  alpha Z        PSCENC =        47.94900195
  Ewald energy   TEWEN  =     47538.22437387
  -Hartree energ DENC   =    -54500.46916736
  -exchange      EXHF   =         0.00000000
  -V(xc)+E(xc)   XCENC  =       442.10108377
  PAW double counting   =    101878.08756886  -101594.46941575
  entropy T*S    EENTRO =        -0.00000000
  eigenvalues    EBANDS =     -2659.57549400
  atomic energy  EATOM  =      8420.94593319
  ---------------------------------------------------
  free energy    TOTEN  =      -427.20611546 eV

  energy without entropy =     -427.20611546  energy(sigma->0) =     -427.20611546


--------------------------------------------------------------------------------------------------------




--------------------------------------- Iteration      1(  27)  ---------------------------------------


    POTLOK:  cpu time    4.2644: real time    4.2967
    SETDIJ:  cpu time    0.0540: real time    0.0542
    TRIAL :  cpu time    1.1608: real time    1.1726
    CORREC:  cpu time    4.7489: real time    4.7902
    CHARGE:  cpu time    0.1775: real time    0.1796
    --------------------------------------------
      LOOP:  cpu time   10.4846: real time   10.5740

 eigenvalue-minimisations  :     0
 total energy-change (2. order) :-0.1135195E-06  (-0.5565761E-07)
 number of electron     216.0000000 magnetization 
 augmentation part       -0.3995684 magnetization 

 Free energy of the ion-electron system (eV)
  ---------------------------------------------------
  alpha Z        PSCENC =        47.94900195
  Ewald energy   TEWEN  =     47538.22437387
  -Hartree energ DENC   =    -54500.46909693
  -exchange      EXHF   =         0.00000000
  -V(xc)+E(xc)   XCENC  =       442.10101816
  PAW double counting   =    101878.38872537  -101594.77055556
  entropy T*S    EENTRO =        -0.00000000
  eigenvalues    EBANDS =     -2659.57551562
  atomic energy  EATOM  =      8420.94593319
  ---------------------------------------------------
  free energy    TOTEN  =      -427.20611557 eV

  energy without entropy =     -427.20611557  energy(sigma->0) =     -427.20611557


--------------------------------------------------------------------------------------------------------




--------------------------------------- Iteration      1(  28)  ---------------------------------------


    POTLOK:  cpu time    4.2743: real time    4.3061
    SETDIJ:  cpu time    0.0541: real time    0.0543
    TRIAL :  cpu time    1.1632: real time    1.1742
    CORREC:  cpu time    4.7358: real time    4.7750
    EDDIAG:  cpu time    0.4358: real time    0.4414
    CHARGE:  cpu time    0.1850: real time    0.1889
[...]
      21 -86.0105      22 -86.0133      23 -86.0373      24 -86.0362      25 -86.0174
      26 -86.0196      27 -86.0180      28 -86.0298      29 -86.0150      30 -86.0173
      31 -86.0380      32 -86.0294      33 -86.0238      34 -86.0191      35 -86.0174
      36 -86.0202      37 -86.0224      38 -86.0252      39 -86.0253      40 -86.0233
      41 -86.0240      42 -86.0272      43 -86.0209      44 -86.0270      45 -86.0168
      46 -86.0155      47 -86.0217      48 -86.0189      49 -86.0241      50 -86.0223
      51 -89.9297      52-120.4471      53-120.4505
 
 
 
 E-fermi :  -4.4044     XC(G=0):  -2.1260     alpha+bet : -1.6890

 Fermi energy:        -4.4044331047

 k-point     1 :       0.0000    0.0000    0.0000
  band No.  band energies     occupation 
      1     -27.6608      2.00000
      2     -26.6752      2.00000
      3     -22.4540      2.00000
      4     -21.5273      2.00000
      5     -21.5215      2.00000
      6     -21.5154      2.00000
      7     -21.5152      2.00000
      8     -21.5124      2.00000
      9     -21.5103      2.00000
     10     -19.6861      2.00000
     11     -19.6845      2.00000
     12     -19.6798      2.00000
     13     -19.6791      2.00000
     14     -19.6776      2.00000
     15     -19.6774      2.00000
     16     -18.7900      2.00000
     17     -18.7886      2.00000
     18     -18.7869      2.00000
     19     -18.7851      2.00000
     20     -18.7843      2.00000
     21     -18.7839      2.00000
     22     -16.6303      2.00000
     23     -16.6292      2.00000
     24     -16.6266      2.00000
     25     -16.6262      2.00000
     26     -16.6227      2.00000
     27     -16.6222      2.00000
     28     -15.6587      2.00000
     29     -15.6579      2.00000
     30     -15.6548      2.00000
     31     -15.6542      2.00000
     32     -15.6532      2.00000
     33     -15.6529      2.00000
     34     -14.3090      2.00000
     35     -14.3087      2.00000
     36     -14.3080      2.00000
     37     -14.3066      2.00000
     38     -14.3064      2.00000
     39     -14.3060      2.00000
     40     -12.5263      2.00000
     41     -11.9368      2.00000
     42     -11.9364      2.00000
     43     -11.9340      2.00000
     44     -11.9338      2.00000
     45     -11.9336      2.00000
     46     -11.9333      2.00000
     47     -11.8507      2.00000
     48     -11.8499      2.00000
     49     -11.8481      2.00000
     50     -11.8477      2.00000
     51     -11.8451      2.00000
     52     -11.8448      2.00000
     53     -11.3990      2.00000
     54     -11.3861      2.00000
     55     -11.3198      2.00000
     56     -10.6059      2.00000
     57     -10.4811      2.00000
     58     -10.4810      2.00000
     59     -10.4802      2.00000
     60     -10.4798      2.00000
     61     -10.4788      2.00000
     62     -10.4786      2.00000
     63      -9.5216      2.00000
     64      -9.5157      2.00000
     65      -9.5150      2.00000
     66      -9.5111      2.00000
     67      -9.5092      2.00000
     68      -9.4844      2.00000
     69      -9.2246      2.00000
     70      -9.2213      2.00000
     71      -9.2207      2.00000
     72      -9.2198      2.00000
     73      -9.2191      2.00000
     74      -9.2176      2.00000
     75      -9.1583      2.00000
     76      -9.1577      2.00000
     77      -9.1574      2.00000
     78      -9.1552      2.00000
     79      -9.1547      2.00000
     80      -9.1535      2.00000
     81      -7.8454      2.00000
     82      -7.7903      2.00000
     83      -7.5756      2.00000
     84      -7.5754      2.00000
     85      -7.5746      2.00000
     86      -7.5727      2.00000
     87      -7.5703      2.00000
     88      -7.5702      2.00000
     89      -7.3933      2.00000
     90      -7.3893      2.00000
     91      -7.3812      2.00000
     92      -7.3802      2.00000
     93      -7.3764      2.00000
     94      -7.3202      2.00000
     95      -6.4953      2.00000
     96      -6.4925      2.00000
     97      -6.4877      2.00000
     98      -6.4838      2.00000
     99      -6.4807      2.00000
    100      -6.4627      2.00000
    101      -6.0992      2.00000
    102      -6.0969      2.00000
    103      -4.5112      2.00000
    104      -4.5072      2.00000
    105      -4.5037      2.00000
    106      -4.5017      2.00000
    107      -4.4965      2.00000
    108      -4.4959      2.00000
    109      -1.7197      0.00000
    110      -1.7173      0.00000
    111      -1.7074      0.00000
    112      -1.7055      0.00000
    113      -1.7034      0.00000
    114      -1.7016      0.00000
    115      -0.2514      0.00000
    116       0.1315      0.00000
    117       0.1386      0.00000
    118       0.1434      0.00000
    119       0.1509      0.00000
    120       0.1524      0.00000
    121       0.1541      0.00000
    122       0.4369      0.00000
    123       0.6853      0.00000
    124       0.9545      0.00000
    125       1.0926      0.00000
    126       1.1275      0.00000
    127       1.1664      0.00000
    128       1.1702      0.00000
    129       1.2332      0.00000
    130       1.2809      0.00000
    131       1.3569      0.00000
    132       1.7313      0.00000
    133       1.7767      0.00000
    134       1.9256      0.00000
    135       2.0120      0.00000
    136       2.0305      0.00000


--------------------------------------------------------------------------------------------------------


 soft charge-density along one line, spin component           1
         0         1         2         3         4         5         6         7         8         9
 total charge-density along one line
 
 pseudopotential strength for first ion, spin component:           1
 12.717  21.400  -0.000   0.000   0.000  -0.000   0.000   0.000
 21.400  36.010  -0.000   0.000   0.000  -0.000   0.000   0.000
 -0.000  -0.000  -3.220  -0.000   0.000  -5.771  -0.000   0.000
  0.000   0.000  -0.000  -3.224  -0.000  -0.000  -5.779  -0.000
  0.000   0.000   0.000  -0.000  -3.220   0.000  -0.000  -5.771
 -0.000  -0.000  -5.771  -0.000   0.000 -10.322  -0.000   0.000
  0.000   0.000  -0.000  -5.779  -0.000  -0.000 -10.335  -0.000
  0.000   0.000   0.000  -0.000  -5.771   0.000  -0.000 -10.322
 total augmentation occupancy for first ion, spin component:           1
  7.414  -2.550  -0.000  -0.002   0.000   0.000   0.001  -0.000
 -2.550   0.916   0.000   0.001  -0.000  -0.000  -0.000   0.000
 -0.000   0.000   6.889  -0.007   0.000  -2.287   0.003  -0.000
 -0.002   0.001  -0.007   2.992  -0.000   0.003  -0.762   0.000
  0.000  -0.000   0.000  -0.000   6.888  -0.000   0.000  -2.287
  0.000  -0.000  -2.287   0.003  -0.000   0.774  -0.001   0.000
  0.001  -0.000   0.003  -0.762   0.000  -0.001   0.202   0.000
 -0.000   0.000  -0.000   0.000  -2.287   0.000   0.000   0.774


------------------------ aborting loop because EDIFF is reached ----------------------------------------


    FORLOC:  cpu time    0.0685: real time    0.0692
    FORNL :  cpu time    0.8445: real time    0.8497
    FORCOR:  cpu time    4.3449: real time    4.3771
    OFIELD:  cpu time    0.0016: real time    0.0016

 VOLUME and BASIS-vectors are now :
 -----------------------------------------------------------------------------
  energy-cutoff  :     1000.00
  volume of cell :     3288.85
      direct lattice vectors                 reciprocal lattice vectors
    12.325000000  0.000000000  0.000000000     0.081135903  0.046843835  0.000000000
    -6.162500000 10.673763102  0.000000000     0.000000000  0.093687670  0.000000000
     0.000000000  0.000000000 25.000000000     0.000000000  0.000000000  0.040000000

  length of vectors
    12.325000000 12.325000000 25.000000000     0.093687670  0.093687670  0.040000000


 FORCES acting on ions:
    Electron-Ion                     Ewald-Force                    Non-Local-Force
 -----------------------------------------------------------------------------------------------
   0.112E+02 0.983E+01 0.255E+02   -.112E+02 -.982E+01 -.255E+02   0.144E-01 -.593E-02 0.131E-01
   0.184E+02 0.914E+01 0.333E+02   -.184E+02 -.913E+01 -.333E+02   0.198E-01 -.137E-01 -.519E-02
   0.915E+01 0.233E+02 0.412E+02   -.914E+01 -.234E+02 -.412E+02   -.197E-02 0.471E-01 0.386E-01
   0.146E+02 0.214E+02 0.661E+02   -.147E+02 -.214E+02 -.662E+02   0.565E-01 0.235E-01 0.873E-01
   0.122E+02 0.289E+01 0.255E+02   -.122E+02 -.287E+01 -.255E+02   0.361E-02 -.172E-01 -.412E-02
   0.128E+02 -.218E+01 0.261E+02   -.128E+02 0.219E+01 -.261E+02   -.209E-01 -.405E-02 -.131E-01
   0.250E+02 0.102E+02 0.567E+02   -.250E+02 -.101E+02 -.567E+02   0.546E-01 -.650E-01 -.958E-02
   0.247E+02 -.834E+01 0.604E+02   -.247E+02 0.837E+01 -.603E+02   0.486E-02 -.314E-01 -.108E+00
   -.101E+02 0.216E+02 0.424E+02   0.102E+02 -.216E+02 -.423E+02   -.218E-01 -.870E-02 -.360E-01
   -.186E+02 0.159E+02 0.643E+02   0.187E+02 -.160E+02 -.642E+02   -.733E-01 0.419E-01 -.844E-01
   0.299E+01 -.264E+01 0.207E+02   -.297E+01 0.263E+01 -.206E+02   -.544E-02 0.407E-02 -.551E-02
   0.238E+01 -.193E+01 0.192E+02   -.237E+01 0.193E+01 -.192E+02   -.157E-01 0.682E-02 0.154E-02
   0.947E+01 -.227E+02 0.690E+02   -.957E+01 0.228E+02 -.689E+02   0.928E-01 -.242E-01 -.957E-01
   0.435E+01 -.236E+02 0.420E+02   -.438E+01 0.236E+02 -.420E+02   0.274E-01 0.311E-02 -.368E-01
   -.109E+02 0.686E+01 0.250E+02   0.109E+02 -.685E+01 -.250E+02   0.156E-01 -.848E-02 -.609E-02
   -.162E+02 0.457E+01 0.293E+02   0.162E+02 -.457E+01 -.292E+02   -.373E-03 0.102E-01 -.231E-01
   -.162E+01 -.665E+00 0.185E+02   0.163E+01 0.662E+00 -.185E+02   -.560E-02 0.411E-03 0.122E-02
   0.898E+00 0.598E+01 0.197E+02   -.893E+00 -.598E+01 -.197E+02   -.893E-02 0.401E-02 0.865E-02
   -.335E+01 -.193E+02 0.318E+02   0.332E+01 0.194E+02 -.318E+02   0.287E-01 -.656E-02 0.113E-01
   -.142E+01 -.929E+01 0.218E+02   0.141E+01 0.929E+01 -.218E+02   0.582E-02 -.573E-02 -.150E-02
   0.192E+02 -.835E+01 0.361E+02   -.192E+02 0.835E+01 -.360E+02   -.832E-02 -.429E-02 -.473E-01
   0.113E+02 -.979E+01 0.281E+02   -.113E+02 0.977E+01 -.280E+02   -.139E-01 0.176E-01 -.157E-01
   -.469E+01 0.106E+02 0.849E+02   0.477E+01 -.106E+02 -.850E+02   -.718E-01 0.567E-01 0.623E-01
   -.830E+01 -.168E+02 0.801E+02   0.825E+01 0.169E+02 -.801E+02   0.489E-01 -.699E-01 0.649E-01
   0.521E+01 -.231E+01 0.208E+02   -.519E+01 0.230E+01 -.208E+02   -.106E-01 0.212E-02 -.964E-02
   0.962E+00 0.468E+01 0.210E+02   -.954E+00 -.468E+01 -.210E+02   -.133E-01 0.636E-02 -.109E-02
   -.249E+02 0.287E+01 0.470E+02   0.249E+02 -.291E+01 -.470E+02   -.205E-02 0.308E-01 -.408E-01
   -.227E+02 -.972E+01 0.421E+02   0.227E+02 0.969E+01 -.422E+02   -.398E-01 0.335E-01 0.175E-01
   0.690E+01 -.141E+02 0.294E+02   -.691E+01 0.141E+02 -.294E+02   0.107E-01 0.963E-02 -.199E-01
   0.643E+00 -.520E+01 0.222E+02   -.654E+00 0.519E+01 -.222E+02   0.214E-02 0.973E-02 -.922E-02
   -.185E+02 -.200E+02 0.524E+02   0.186E+02 0.200E+02 -.525E+02   -.470E-01 -.301E-01 0.629E-01
   -.104E+02 -.190E+02 0.340E+02   0.104E+02 0.190E+02 -.341E+02   -.648E-03 -.279E-01 0.246E-01
   0.608E+00 0.250E+01 0.191E+02   -.614E+00 -.250E+01 -.191E+02   0.121E-01 -.874E-02 0.366E-02
   0.174E+01 0.253E+01 0.206E+02   -.174E+01 -.252E+01 -.206E+02   0.659E-03 -.380E-02 -.598E-02
   -.759E+01 0.938E+00 0.226E+02   0.759E+01 -.946E+00 -.226E+02   0.108E-01 0.223E-02 -.215E-02
   -.651E+01 -.260E+01 0.220E+02   0.652E+01 0.259E+01 -.219E+02   -.113E-01 0.881E-02 -.272E-02
   -.133E+02 -.694E+01 0.261E+02   0.133E+02 0.694E+01 -.261E+02   -.159E-01 0.445E-02 0.193E-02
   -.764E+01 -.621E+01 0.216E+02   0.765E+01 0.620E+01 -.216E+02   -.112E-01 0.333E-02 0.103E-01
   -.719E+01 -.940E+01 0.232E+02   0.720E+01 0.941E+01 -.232E+02   -.115E-01 -.788E-02 0.796E-02
   -.106E+01 -.223E+01 0.197E+02   0.105E+01 0.223E+01 -.197E+02   0.224E-02 -.224E-02 0.821E-02
   0.270E+01 0.645E+01 0.206E+02   -.269E+01 -.646E+01 -.206E+02   -.425E-02 0.976E-02 0.800E-02
   0.901E+01 0.141E+02 0.272E+02   -.903E+01 -.141E+02 -.272E+02   0.115E-01 0.124E-01 0.164E-01
   0.718E+00 0.115E+02 0.230E+02   -.708E+00 -.115E+02 -.230E+02   -.858E-02 0.863E-02 -.778E-03
   0.135E+00 0.218E+02 0.351E+02   -.103E+00 -.218E+02 -.352E+02   -.363E-01 0.122E-01 0.135E-01
   -.219E+01 0.436E+01 0.221E+02   0.219E+01 -.435E+01 -.221E+02   0.113E-02 -.819E-02 -.664E-02
   -.929E+01 0.118E+02 0.280E+02   0.929E+01 -.118E+02 -.280E+02   -.890E-02 -.252E-02 -.176E-01
   -.157E+01 -.441E+01 0.204E+02   0.156E+01 0.441E+01 -.204E+02   0.149E-01 -.205E-02 0.945E-03
   -.410E+01 0.167E+01 0.196E+02   0.408E+01 -.167E+01 -.196E+02   0.852E-02 -.858E-03 -.822E-02
   0.318E+00 -.274E+01 0.193E+02   -.321E+00 0.273E+01 -.193E+02   0.824E-02 -.374E-02 0.571E-02
   0.432E+01 0.317E+01 0.196E+02   -.433E+01 -.317E+01 -.196E+02   0.578E-02 0.270E-02 0.345E-02
   0.166E+00 -.112E+00 -.411E+03   -.153E+00 0.103E+00 0.411E+03   -.132E-01 0.724E-02 -.397E-01
   -.229E+03 0.156E+03 -.629E+03   0.279E+03 -.190E+03 0.632E+03   -.510E+02 0.347E+02 -.323E+01
   0.229E+03 -.156E+03 -.606E+03   -.279E+03 0.190E+03 0.603E+03   0.510E+02 -.347E+02 0.326E+01
 -----------------------------------------------------------------------------------------------
   0.370E-01 -.366E-02 0.146E+00   0.114E-12 -.114E-12 0.227E-12   -.371E-01 0.369E-02 -.148E+00
 
 
 POSITION                                       TOTAL-FORCE (eV/Angst)
 -----------------------------------------------------------------------------------
     11.98348      0.00342      0.01417         0.001762     -0.000179     -0.000189
     -0.34154      1.42665      0.01100         0.001571      0.002365      0.001098
      2.12355      0.00315      0.01249         0.002161     -0.005523      0.004877
      2.12326      1.42653      0.00641        -0.001870      0.004638      0.001494
     10.75099      2.13819      0.01213         0.000512     -0.004041      0.002363
     -1.57382      3.56123      0.01110        -0.004891      0.006978      0.001083
      0.89078      2.13854      0.00548        -0.003391      0.003856     -0.001879
      0.89099      3.56147      0.00181        -0.005965      0.007939     -0.014477
      4.58864      0.00346      0.01135         0.006955      0.005632     -0.001182
      4.58894      1.42623      0.00646        -0.000076     -0.000440     -0.018665
      9.51854      4.27281      0.01369         0.007588     -0.007720      0.000394
     -2.80632      5.69591      0.01434        -0.008858      0.004991      0.001022
      2.12300      4.27302      0.00000        -0.004152      0.007894     -0.024425
      2.12335      5.69594      0.00581        -0.003875     -0.011534      0.000084
      7.05344      0.00333      0.01399         0.005605     -0.002428      0.002167
      7.05353      1.42635      0.01368        -0.005248      0.005143      0.000253
      8.28610      6.40752      0.01601         0.003795     -0.002495     -0.000423
     -4.03885      7.83070      0.01636        -0.003060      0.003255      0.000012
      3.35586      6.40753      0.01007         0.002649      0.000639      0.002658
      3.35599      7.83072      0.01320        -0.002868     -0.000384      0.000308
     -0.34146      4.27290      0.00723         0.011985     -0.008345     -0.000010
     -0.34138      5.69591      0.00946        -0.006841      0.003177      0.003355
      3.35624      2.13791      0.00222         0.006593     -0.002728     -0.027707
      3.35573      3.56155      0.00139        -0.003509      0.003270     -0.017245
     -1.57395      6.40758      0.01311         0.010365     -0.003626     -0.000580
     -1.57385      7.83068      0.01438        -0.004874      0.004227      0.000384
      5.82093      2.13784      0.01033        -0.000619     -0.008031     -0.003643
      5.82114      3.56097      0.01156        -0.001387     -0.000228      0.004033
      0.89092      6.40755      0.00907         0.003789     -0.000363      0.002705
      0.89106      7.83068      0.01235        -0.008984     -0.000270      0.000544
      4.58871      4.27293      0.00850         0.000831     -0.005532      0.004940
      4.58852      5.69606      0.01149         0.000817      0.008296      0.001971
      9.51845      0.00337      0.01490         0.005977     -0.005955      0.000367
      9.51855      1.42644      0.01438        -0.004413      0.009496     -0.000262
      8.28593      2.13803      0.01453         0.003308     -0.005744      0.001325
      8.28613      3.56115      0.01464        -0.004618      0.001689      0.000555
      7.05356      4.27269      0.01457         0.003001     -0.000589      0.001389
      7.05362      5.69588      0.01553        -0.002726      0.000618     -0.000045
      5.82112      6.40755      0.01489        -0.000812      0.001091      0.000095
      5.82102      7.83073      0.01579         0.000213      0.002165     -0.000298
      7.05363      8.54227      0.01631        -0.002063     -0.001218      0.001151
     -5.27149      9.96549      0.01495        -0.001837     -0.002502     -0.001000
     -2.80638      8.54234      0.01558         0.002507     -0.001016     -0.000043
     -2.80627      9.96553      0.01362        -0.003242      0.000483      0.002259
     -0.34149      8.54239      0.01378         0.006313     -0.001378      0.000751
     -0.34138      9.96550      0.01354        -0.007071      0.003047      0.002326
      2.12343      8.54232      0.01336         0.006608     -0.001271      0.000933
      2.12354      9.96544      0.01469        -0.008100      0.004066     -0.001905
      4.58846      8.54235      0.01505         0.005748     -0.004616      0.001111
      4.58853      9.96550      0.01517        -0.003077      0.003875      0.000723
      3.04930      2.68154      3.14980         0.000351     -0.001957     -0.008614
      4.02070      2.02068      3.21422        -0.545272      0.379211     -0.005618
      2.07767      3.34267      3.09035         0.552696     -0.387929      0.079484
 -----------------------------------------------------------------------------------
    total drift:                               -0.000122      0.000029     -0.002160


--------------------------------------------------------------------------------------------------------



  FREE ENERGIE OF THE ION-ELECTRON SYSTEM (eV)
  ---------------------------------------------------
  free  energy   TOTEN  =      -427.20611562 eV

  energy  without entropy=     -427.20611562  energy(sigma->0) =     -427.20611562
 


--------------------------------------------------------------------------------------------------------


    POTLOK:  cpu time    4.3127: real time    4.3449


--------------------------------------------------------------------------------------------------------


 writing wavefunctions
     LOOP+:  cpu time  298.3033: real time  301.1504
    4ORBIT:  cpu time    0.0000: real time    0.0000

 total amount of memory used by VASP MPI-rank0   100580. kBytes
=======================================================================

   base      :      30000. kBytes
   nonl-proj :       8229. kBytes
   fftplans  :      18352. kBytes
   grid      :      30208. kBytes
   one-center:          6. kBytes
   wavefun   :      13785. kBytes
 
  
  
 General timing and accounting informations for this job:
 ========================================================
  
                  Total CPU time used (sec):      344.561
                            User time (sec):      321.634
                          System time (sec):       22.928
                         Elapsed time (sec):      348.620
  
                   Maximum memory used (kb):      797468.
                   Average memory used (kb):          N/A
  
                          Minor page faults:       389347
                          Major page faults:          102
                 Voluntary context switches:         3710
