 vasp.6.2.1 16May21 (build Nov 06 2021 14:46:37) complex                        
  
 executed on             LinuxIFC date 2025.04.16  17:53:03
 running on  112 total cores
 distrk:  each k-point on  112 cores,    1 groups
 distr:  one band on NCORE=  28 cores,    4 groups


--------------------------------------------------------------------------------------------------------


 INCAR:
   ALGO = Conjugate
   NPAR = 4
   ISMEAR = 0
   SIGMA = 0.01
   PREC = Accurate
   EDIFF = 1E-7
   ENCUT = 1000
   ISIF = 0
   GGA = MK
   LUSE_VDW = .TRUE.
   PARAM1 = 0.1234
   PARAM2 = 0.711357
   ZAB_VDW = -1.8867
   AGGAC = 0.0000
   LASPH = .TRUE.

 POTCAR:    PAW_PBE C_h 06Feb2004                 
 POTCAR:    PAW_PBE O_h 06Feb2004                 
 -----------------------------------------------------------------------------
|                                                                             |
|           W    W    AA    RRRRR   N    N  II  N    N   GGGG   !!!           |
|           W    W   A  A   R    R  NN   N  II  NN   N  G    G  !!!           |
|           W    W  A    A  R    R  N N  N  II  N N  N  G       !!!           |
|           W WW W  AAAAAA  RRRRR   N  N N  II  N  N N  G  GGG   !            |
|           WW  WW  A    A  R   R   N   NN  II  N   NN  G    G                |
|           W    W  A    A  R    R  N    N  II  N    N   GGGG   !!!           |
|                                                                             |
|     For optimal performance we recommend to set                             |
|       NCORE = 2 up to number-of-cores-per-socket                            |
|     NCORE specifies how many cores store one orbital (NPAR=cpu/NCORE).      |
|     This setting can greatly improve the performance of VASP for DFT.       |
|     The default, NCORE=1 might be grossly inefficient on modern             |
|     multi-core architectures or massively parallel machines. Do your        |
|     own testing! More info at https://www.vasp.at/wiki/index.php/NCORE      |
|     Unfortunately you need to use the default for GW and RPA                |
|     calculations (for HF NCORE is supported but not extensively tested      |
|     yet).                                                                   |
|                                                                             |
 -----------------------------------------------------------------------------

 -----------------------------------------------------------------------------
|                                                                             |
|               ----> ADVICE to this user running VASP <----                  |
|                                                                             |
|     You have switched on vdW-DFT.                                           |
|     This routine was written and supplied by Jiri Klimes. We recommend      |
|     that you carefully read and cite the following publications:            |
|       J. Klimes, D.R. Bowler, A. Michelides                                 |
|          J. Phys.: Cond Matt. 22 022201 (2010)                              |
|       J. Klimes, D.R. Bowler, A. Michelides                                 |
|          Phys. Rev. B. 83, 195131 (2011)                                    |
|     and references therein.                                                 |
|                                                                             |
 -----------------------------------------------------------------------------

 POTCAR:    PAW_PBE C_h 06Feb2004                 
   VRHFIN =C: s2p2                                                                                  
   LEXCH  = PE                                                                                      
   EATOM  =   147.1560 eV,   10.8157 Ry                                                             
                                                                                                    
   TITEL  = PAW_PBE C_h 06Feb2004                                                                   
   LULTRA =        F    use ultrasoft PP ?                                                          
   IUNSCR =        1    unscreen: 0-lin 1-nonlin 2-no                                               
   RPACOR =    0.800    partial core radius                                                         
   POMASS =   12.011; ZVAL   =    4.000    mass and valenz                                          
   RCORE  =    1.100    outmost cutoff radius                                                       
   RWIGS  =    1.630; RWIGS  =    0.863    wigner-seitz radius (au A)                               
   ENMAX  =  700.000; ENMIN  =  500.000 eV                                                          
   ICORE  =        2    local potential                                                             
   LCOR   =        T    correct aug charges                                                         
   LPAW   =        T    paw PP                                                                      
   EAUG   =  946.768                                                                                
   DEXC   =    0.000                                                                                
   RMAX   =    1.128    core radius for proj-oper                                                   
   RAUG   =    1.300    factor for augmentation sphere                                              
   RDEP   =    1.162    radius for radial grids                                                     
   RDEPT  =    1.088    core radius for aug-charge                                                  
                                                                                                    
   Atomic configuration                                                                             
    4 entries                                                                                       
     n  l   j            E        occ.                                                              
     1  0  0.50      -273.3789   2.0000                                                             
     2  0  0.50       -13.7508   2.0000                                                             
     2  1  0.50        -5.2854   2.0000                                                             
     3  2  1.50        -5.4423   0.0000                                                             
   Description                                                                                      
     l       E           TYP  RCUT    TYP  RCUT                                                     
     0    -13.7508458     23  1.100                                                                 
     0     -8.2022199     23  1.100                                                                 
     1     -5.2854383     23  1.100                                                                 
     1      1.1560700     23  1.100                                                                 
     2     -5.4423304      7  1.100                                                                 
  local pseudopotential read in
  partial core-charges read in
  partial kinetic energy density read in
  atomic valenz-charges read in
  non local Contribution for L=           0  read in
    real space projection operators read in
  non local Contribution for L=           0  read in
    real space projection operators read in
  non local Contribution for L=           1  read in
    real space projection operators read in
  non local Contribution for L=           1  read in
    real space projection operators read in
    PAW grid and wavefunctions read in
 
   number of l-projection  operators is LMAX  =           4
   number of lm-projection operators is LMMAX =           8
 
 POTCAR:    PAW_PBE O_h 06Feb2004                 
   VRHFIN =O: s2p4                                                                                  
   LEXCH  = PE                                                                                      
   EATOM  =   432.3788 eV,   31.7789 Ry                                                             
                                                                                                    
   TITEL  = PAW_PBE O_h 06Feb2004                                                                   
   LULTRA =        F    use ultrasoft PP ?                                                          
   IUNSCR =        1    unscreen: 0-lin 1-nonlin 2-no                                               
   RPACOR =    0.800    partial core radius                                                         
   POMASS =   16.000; ZVAL   =    6.000    mass and valenz                                          
   RCORE  =    1.100    outmost cutoff radius                                                       
   RWIGS  =    1.400; RWIGS  =    0.741    wigner-seitz radius (au A)                               
   ENMAX  =  700.000; ENMIN  =  500.000 eV                                                          
   ICORE  =        2    local potential                                                             
   LCOR   =        T    correct aug charges                                                         
   LPAW   =        T    paw PP                                                                      
   EAUG   =  888.804                                                                                
   DEXC   =    0.000                                                                                
   RMAX   =    1.128    core radius for proj-oper                                                   
   RAUG   =    1.300    factor for augmentation sphere                                              
   RDEP   =    1.125    radius for radial grids                                                     
   RDEPT  =    1.088    core radius for aug-charge                                                  
                                                                                                    
   Atomic configuration                                                                             
    4 entries                                                                                       
     n  l   j            E        occ.                                                              
     1  0  0.50      -514.6923   2.0000                                                             
     2  0  0.50       -23.9615   2.0000                                                             
     2  1  0.50        -9.0305   4.0000                                                             
     3  2  1.50        -9.5241   0.0000                                                             
   Description                                                                                      
     l       E           TYP  RCUT    TYP  RCUT                                                     
     0    -23.9615319     23  1.100                                                                 
     0    -25.3221145     23  1.100                                                                 
     1     -9.0304911     23  1.100                                                                 
     1     -5.4802209     23  1.100                                                                 
     2     -9.5240782      7  1.100                                                                 
  local pseudopotential read in
  partial core-charges read in
  partial kinetic energy density read in
  atomic valenz-charges read in
  non local Contribution for L=           0  read in
    real space projection operators read in
  non local Contribution for L=           0  read in
    real space projection operators read in
  non local Contribution for L=           1  read in
    real space projection operators read in
  non local Contribution for L=           1  read in
    real space projection operators read in
    PAW grid and wavefunctions read in
 
   number of l-projection  operators is LMAX  =           4
   number of lm-projection operators is LMMAX =           8
 
 -----------------------------------------------------------------------------
|                                                                             |
|               ----> ADVICE to this user running VASP <----                  |
|                                                                             |
|     You have a (more or less) 'large supercell' and for larger cells it     |
|     might be more efficient to use real-space projection operators.         |
|     Therefore, try LREAL= Auto in the INCAR file.                           |
|     Mind: For very accurate calculation, you might also keep the            |
|     reciprocal projection scheme (i.e. LREAL=.FALSE.).                      |
|                                                                             |
 -----------------------------------------------------------------------------

 -----------------------------------------------------------------------------
|                                                                             |
|               ----> ADVICE to this user running VASP <----                  |
|                                                                             |
|     You enforced a specific xc type in the INCAR file but a different       |
|     type was found in the POTCAR file.                                      |
|     I HOPE YOU KNOW WHAT YOU ARE DOING!                                     |
|                                                                             |
 -----------------------------------------------------------------------------

  PAW_PBE C_h 06Feb2004                 :
 energy of atom  1       EATOM= -147.1560
 kinetic energy error for atom=    0.0031 (will be added to EATOM!!)
  PAW_PBE O_h 06Feb2004                 :
 energy of atom  2       EATOM= -432.3788
 kinetic energy error for atom=    0.0171 (will be added to EATOM!!)
 
 
 POSCAR:  C  O
  positions in cartesian coordinates
  No initial velocities read in
 exchange correlation table for  LEXCH =       43
   RHO(1)=    0.500       N(1)  =     2000
   RHO(2)=  100.500       N(2)  =     4000
 


--------------------------------------------------------------------------------------------------------


 ion  position               nearest neighbor table
   1  0.972  0.000  0.001-  50 1.42   2 1.42  42 1.42
   2  0.039  0.134  0.000-   5 1.42   7 1.42   1 1.42
   3  0.172  0.000  0.000-  42 1.42  44 1.42   4 1.42
   4  0.239  0.134  0.000-   7 1.42   3 1.42  23 1.42
   5  0.972  0.200  0.000-   6 1.42   2 1.42  34 1.42
   6  0.039  0.334  0.000-   5 1.42  21 1.42  11 1.42
   7  0.172  0.200  0.000-   8 1.42   2 1.42   4 1.42
   8  0.239  0.334  0.000-  13 1.42   7 1.42  21 1.42
   9  0.372  0.000  0.000-  10 1.42  44 1.42  46 1.42
  10  0.439  0.134  0.000-  27 1.42   9 1.42  23 1.42
  11  0.972  0.400  0.001-  12 1.42  36 1.42   6 1.42
  12  0.039  0.534  0.001-  25 1.42  11 1.42  17 1.42
  13  0.372  0.400  0.000-   8 1.42  14 1.42  24 1.42
  14  0.439  0.534  0.000-  13 1.42  29 1.42  19 1.42
  15  0.572  0.000  0.001-  46 1.42  16 1.42  48 1.42
  16  0.639  0.134  0.001-  15 1.42  35 1.42  27 1.42
  17  0.972  0.600  0.001-  38 1.42  18 1.42  12 1.42
  18  0.039  0.734  0.001-  43 1.42  41 1.42  17 1.42
  19  0.572  0.600  0.000-  14 1.42  20 1.42  32 1.42
  20  0.639  0.734  0.001-  49 1.42  19 1.42  47 1.42
  21  0.172  0.400  0.000-  22 1.42   8 1.42   6 1.42
  22  0.239  0.534  0.000-  21 1.42  29 1.42  25 1.42
  23  0.372  0.200  0.000-  10 1.42   4 1.42  24 1.42
  24  0.439  0.334  0.000-  13 1.42  31 1.42  23 1.42
  25  0.172  0.600  0.001-  26 1.42  12 1.42  22 1.42
  26  0.239  0.734  0.001-  25 1.42  45 1.42  43 1.42
  27  0.572  0.200  0.000-  10 1.42  28 1.42  16 1.42
  28  0.639  0.334  0.000-  27 1.42  37 1.42  31 1.42
  29  0.372  0.600  0.000-  22 1.42  14 1.42  30 1.42
  30  0.439  0.734  0.000-  47 1.42  29 1.42  45 1.42
  31  0.572  0.400  0.000-  32 1.42  28 1.42  24 1.42
  32  0.639  0.534  0.000-  31 1.42  39 1.42  19 1.42
  33  0.772  0.000  0.001-  34 1.42  48 1.42  50 1.42
  34  0.839  0.134  0.001-  33 1.42   5 1.42  35 1.42
  35  0.772  0.200  0.001-  36 1.42  16 1.42  34 1.42
  36  0.839  0.334  0.001-  35 1.42  11 1.42  37 1.42
  37  0.772  0.400  0.001-  28 1.42  38 1.42  36 1.42
  38  0.839  0.534  0.001-  17 1.42  37 1.42  39 1.42
  39  0.772  0.600  0.001-  40 1.42  38 1.42  32 1.42
  40  0.839  0.734  0.001-  39 1.42  49 1.42  41 1.42
  41  0.972  0.800  0.001-  18 1.42  42 1.42  40 1.42
  42  0.039  0.934  0.001-   3 1.42  41 1.42   1 1.42
  43  0.172  0.800  0.001-  18 1.42  44 1.42  26 1.42
  44  0.239  0.934  0.001-   9 1.42  43 1.42   3 1.42
  45  0.372  0.800  0.001-  26 1.42  46 1.42  30 1.42
  46  0.439  0.934  0.001-  15 1.42  45 1.42   9 1.42
  47  0.572  0.800  0.001-  30 1.42  48 1.42  20 1.42
  48  0.639  0.934  0.001-  47 1.42  33 1.42  15 1.42
  49  0.772  0.800  0.001-  50 1.42  20 1.42  40 1.42
  50  0.839  0.934  0.001-  49 1.42   1 1.42  33 1.42
  51  0.373  0.251  0.112-  52 1.18  53 1.18
  52  0.421  0.189  0.115-  51 1.18
  53  0.325  0.313  0.110-  51 1.18
 
  LATTYP: Found a hexagonal cell.
 ALAT       =    12.3250000000
 C/A-ratio  =     2.0283975659
  
  Lattice vectors:
  
 A1 = (  12.3250000000,   0.0000000000,   0.0000000000)
 A2 = (  -6.1625000000,  10.6737631016,   0.0000000000)
 A3 = (   0.0000000000,   0.0000000000,  25.0000000000)


Analysis of symmetry for initial positions (statically):
=====================================================================
 Subroutine PRICEL returns:
 Original cell was already a primitive cell.
 

 Routine SETGRP: Setting up the symmetry group for a 
 hexagonal supercell.


 Subroutine GETGRP returns: Found  1 space group operations
 (whereof  1 operations were pure point group operations)
 out of a pool of 24 trial point group operations.


The static configuration has the point symmetry C_1 .


Analysis of symmetry for dynamics (positions and initial velocities):
=====================================================================
 Subroutine PRICEL returns:
 Original cell was already a primitive cell.
 

 Routine SETGRP: Setting up the symmetry group for a 
 hexagonal supercell.


 Subroutine GETGRP returns: Found  1 space group operations
 (whereof  1 operations were pure point group operations)
 out of a pool of 24 trial point group operations.


The dynamic configuration has the point symmetry C_1 .


 Subroutine INISYM returns: Found  1 space group operations
 (whereof  1 operations are pure point group operations),
 and found     1 'primitive' translations


----------------------------------------------------------------------------------------

                                     Primitive cell                                     

  volume of cell :    3288.8533

  direct lattice vectors                    reciprocal lattice vectors
    12.325000000  0.000000000  0.000000000     0.081135903  0.046843835  0.000000000
    -6.162500000 10.673763102  0.000000000     0.000000000  0.093687670  0.000000000
     0.000000000  0.000000000 25.000000000     0.000000000  0.000000000  0.040000000

  length of vectors
    12.325000000 12.325000000 25.000000000     0.093687670  0.093687670  0.040000000

  position of ions in fractional coordinates (direct lattice)
     0.972450841  0.000320818  0.000566711
     0.039118382  0.133659505  0.000440173
     0.172443627  0.000295449  0.000499628
     0.239096278  0.133647917  0.000256468
     0.972452058  0.200322012  0.000485219
     0.039128360  0.333643771  0.000444150
     0.172451764  0.200354552  0.000219167
     0.239124359  0.333665720  0.000072260
     0.372465565  0.000324403  0.000453913
     0.439137473  0.133619939  0.000258338
     0.972449824  0.400309362  0.000547611
     0.039124981  0.533636789  0.000573410
     0.372416176  0.400329481  0.000000000
     0.439099602  0.533638981  0.000232414
     0.572443676  0.000312125  0.000559580
     0.639110207  0.133631751  0.000547275
     0.972452703  0.600305653  0.000640289
     0.039124495  0.733640359  0.000654513
     0.572433471  0.600306242  0.000402895
     0.639111888  0.733641879  0.000527905
     0.172454630  0.400318228  0.000289045
     0.239120185  0.533636548  0.000378509
     0.372459750  0.200295993  0.000088997
     0.439107096  0.333673419  0.000055762
     0.172452155  0.600311506  0.000524340
     0.239123371  0.733638574  0.000575129
     0.572431082  0.200289171  0.000413296
     0.639112773  0.333618630  0.000462376
     0.372439808  0.600308022  0.000362844
     0.439116090  0.733637858  0.000494190
     0.572469358  0.400320504  0.000339918
     0.639119408  0.533650873  0.000459610
     0.772445723  0.000315427  0.000596161
     0.839116277  0.133640203  0.000575306
     0.772440513  0.200307432  0.000581033
     0.839120241  0.333635728  0.000585467
     0.772446320  0.400298367  0.000582978
     0.839118980  0.533633964  0.000621100
     0.772456143  0.600308173  0.000595712
     0.839115033  0.733643180  0.000631512
     0.972455313  0.800305582  0.000652233
     0.039114714  0.933643289  0.000598051
     0.172457971  0.800312211  0.000623372
     0.239134551  0.933647193  0.000544850
     0.372451396  0.800316674  0.000551399
     0.439124489  0.933644769  0.000541430
     0.572441101  0.800310054  0.000534535
     0.639115067  0.933638985  0.000587644
     0.772445098  0.800313187  0.000602062
     0.839116614  0.933644338  0.000606830
     0.373021009  0.251226878  0.112246205
     0.420879805  0.189313152  0.114823079
     0.325156981  0.313167186  0.109868010

  ion indices of the primitive-cell ions
   primitive index   ion index
                 1           1
                 2           2
                 3           3
                 4           4
                 5           5
                 6           6
                 7           7
                 8           8
                 9           9
                10          10
                11          11
                12          12
                13          13
                14          14
                15          15
                16          16
                17          17
                18          18
                19          19
                20          20
                21          21
                22          22
                23          23
                24          24
                25          25
                26          26
                27          27
                28          28
                29          29
                30          30
                31          31
                32          32
                33          33
                34          34
                35          35
                36          36
                37          37
                38          38
                39          39
                40          40
                41          41
                42          42
                43          43
                44          44
                45          45
                46          46
                47          47
                48          48
                49          49
                50          50
                51          51
                52          52
                53          53

----------------------------------------------------------------------------------------

 
 
 KPOINTS: auto                                    

Automatic generation of k-mesh.
 Grid dimensions read from file:
 generate k-points for:    1    1    1

 Generating k-lattice:

  Cartesian coordinates                     Fractional coordinates (reciprocal lattice)
     0.081135903  0.046843835  0.000000000     1.000000000 -0.000000000  0.000000000
     0.000000000  0.093687670  0.000000000     0.000000000  1.000000000  0.000000000
     0.000000000  0.000000000  0.040000000     0.000000000  0.000000000  1.000000000

  Length of vectors
     0.093687670  0.093687670  0.040000000

  Shift w.r.t. Gamma in fractional coordinates (k-lattice)
     0.000000000  0.000000000  0.000000000

 
 Subroutine IBZKPT returns following result:
 ===========================================
 
 Found      1 irreducible k-points:
 
 Following reciprocal coordinates:
            Coordinates               Weight
  0.000000  0.000000  0.000000      1.000000
 
 Following cartesian coordinates:
            Coordinates               Weight
  0.000000  0.000000  0.000000      1.000000
 


--------------------------------------------------------------------------------------------------------




 Dimension of arrays:
   k-points           NKPTS =      1   k-points in BZ     NKDIM =      1   number of bands    NBANDS=    136
   number of dos      NEDOS =    301   number of ions     NIONS =     53
   non local maximal  LDIM  =      4   non local SUM 2l+1 LMDIM =      8
   total plane-waves  NPLWV = ******
   max r-space proj   IRMAX =      1   max aug-charges    IRDMAX=  10008
   dimension x,y,z NGX =   128 NGY =  128 NGZ =  270
   dimension x,y,z NGXF=   256 NGYF=  256 NGZF=  540
   support grid    NGXF=   256 NGYF=  256 NGZF=  540
   ions per type =              51   2
   NGX,Y,Z   is equivalent  to a cutoff of  17.27, 17.27, 17.95 a.u.
   NGXF,Y,Z  is equivalent  to a cutoff of  34.53, 34.53, 35.91 a.u.

 SYSTEM =  unknown system                          
 POSCAR =   C  O                                   

 Startparameter for this run:
   NWRITE =      2    write-flag & timer
   PREC   = accura    normal or accurate (medium, high low for compatibility)
   ISTART =      0    job   : 0-new  1-cont  2-samecut
   ICHARG =      2    charge: 1-file 2-atom 10-const
   ISPIN  =      1    spin polarized calculation?
   LNONCOLLINEAR =      F non collinear calculations
   LSORBIT =      F    spin-orbit coupling
   INIWAV =      1    electr: 0-lowe 1-rand  2-diag
   LASPH  =      T    aspherical Exc in radial PAW
 Electronic Relaxation 1
   ENCUT  = 1000.0 eV  73.50 Ry    8.57 a.u.  31.78 31.78 64.46*2*pi/ulx,y,z
   ENINI  = 1000.0     initial cutoff
   ENAUG  =  946.8 eV  augmentation charge cutoff
   NELM   =     60;   NELMIN=  2; NELMDL= -5     # of ELM steps 
   EDIFF  = 0.1E-06   stopping-criterion for ELM
   LREAL  =      F    real-space projection
   NLSPLINE    = F    spline interpolate recip. space projectors
   LCOMPAT=      F    compatible to vasp.4.4
   GGA_COMPAT  = T    GGA compatible to vasp.4.4-vasp.4.6
   LMAXPAW     = -100 max onsite density
   LMAXMIX     =    2 max onsite mixed and CHGCAR
   VOSKOWN=      0    Vosko Wilk Nusair interpolation
   ROPT   =    0.00000   0.00000
 Ionic relaxation
   EDIFFG = 0.1E-05   stopping-criterion for IOM
   NSW    =      0    number of steps for IOM
   NBLOCK =      1;   KBLOCK =      1    inner block; outer block 
   IBRION =     -1    ionic relax: 0-MD 1-quasi-New 2-CG
   NFREE  =      0    steps in history (QN), initial steepest desc. (CG)
   ISIF   =      0    stress and relaxation
   IWAVPR =     10    prediction:  0-non 1-charg 2-wave 3-comb
   ISYM   =      2    0-nonsym 1-usesym 2-fastsym
   LCORR  =      T    Harris-Foulkes like correction to forces

   POTIM  = 0.5000    time-step for ionic-motion
   TEIN   =    0.0    initial temperature
   TEBEG  =    0.0;   TEEND  =   0.0 temperature during run
   SMASS  =  -3.00    Nose mass-parameter (am)
   estimated Nose-frequenzy (Omega)   =  0.10E-29 period in steps = 0.13E+47 mass=  -0.347E-26a.u.
   SCALEE = 1.0000    scale energy and forces
   NPACO  =    256;   APACO  = 16.0  distance and # of slots for P.C.
   PSTRESS=    0.0 pullay stress

  Mass of Ions in am
   POMASS =  12.01 16.00
  Ionic Valenz
   ZVAL   =   4.00  6.00
  Atomic Wigner-Seitz radii
   RWIGS  =  -1.00 -1.00
  virtual crystal weights 
   VCA    =   1.00  1.00
   NELECT =     216.0000    total number of electrons
   NUPDOWN=      -1.0000    fix difference up-down

 DOS related values:
   EMIN   =  10.00;   EMAX   =-10.00  energy-range for DOS
   EFERMI =   0.00
   ISMEAR =     0;   SIGMA  =   0.01  broadening in eV -4-tet -1-fermi 0-gaus

 Electronic relaxation 2 (details)
   IALGO  =     58    algorithm
   LDIAG  =      T    sub-space diagonalisation (order eigenvalues)
   LSUBROT=      F    optimize rotation matrix (better conditioning)
   TURBO    =      0    0=normal 1=particle mesh
   IRESTART =      0    0=no restart 2=restart with 2 vectors
   NREBOOT  =      0    no. of reboots
   NMIN     =      0    reboot dimension
   EREF     =   0.00    reference energy to select bands
   IMIX   =      4    mixing-type and parameters
     AMIX     =   0.40;   BMIX     =  1.00
     AMIX_MAG =   1.60;   BMIX_MAG =  1.00
     AMIN     =   0.10
     WC   =   100.;   INIMIX=   1;  MIXPRE=   1;  MAXMIX= -45

 Intra band minimization:
   WEIMIN = 0.0000     energy-eigenvalue tresh-hold
   EBREAK =  0.18E-09  absolut break condition
   DEPER  =   0.30     relativ break condition  

   TIME   =   0.40     timestep for ELM

  volume/ion in A,a.u.               =      62.05       418.76
  Fermi-wavevector in a.u.,A,eV,Ry     =   0.660508  1.248179  5.935820  0.436270
  Thomas-Fermi vector in A             =   1.732977
 
 Write flags
   LWAVE        =      T    write WAVECAR
   LDOWNSAMPLE  =      F    k-point downsampling of WAVECAR
   LCHARG       =      T    write CHGCAR
   LVTOT        =      F    write LOCPOT, total local potential
   LVHAR        =      F    write LOCPOT, Hartree potential only
   LELF         =      F    write electronic localiz. function (ELF)
   LORBIT       =      0    0 simple, 1 ext, 2 COOP (PROOUT), +10 PAW based schemes


 Dipole corrections
   LMONO  =      F    monopole corrections only (constant potential shift)
   LDIPOL =      F    correct potential (dipole corrections)
   IDIPOL =      0    1-x, 2-y, 3-z, 4-all directions 
   EPSILON=  1.0000000 bulk dielectric constant

 Exchange correlation treatment:
   GGA     =    MK    GGA type
   LEXCH   =    43    internal setting for exchange type
   VOSKOWN=      0    Vosko Wilk Nusair interpolation
   LHFCALC =     F    Hartree Fock is set to
   LHFONE  =     F    Hartree Fock one center treatment
   AEXX    =    0.0000 exact exchange contribution

 vdW DFT:
   LUSE_VDW   =     T    switch on vdW DFT
   Zab_VDW    =******    correlation parameter
   PARAM1     =0.1234
   PARAM2     =0.7114
   PARAM3     =0.0000
   -- rVV10 --
   BPARAM     = 6.3000
   CPARAM     = 0.0093

 Linear response parameters
   LEPSILON=     F    determine dielectric tensor
   LRPA    =     F    only Hartree local field effects (RPA)
   LNABLA  =     F    use nabla operator in PAW spheres
   LVEL    =     F    velocity operator in full k-point grid
   LINTERFAST=   F  fast interpolation
   KINTER  =     0    interpolate to denser k-point grid
   CSHIFT  =0.1000    complex shift for real part using Kramers Kronig
   OMEGAMAX=  -1.0    maximum frequency
   DEG_THRESHOLD= 0.2000000E-02 threshold for treating states as degnerate
   RTIME   =   -0.100 relaxation time in fs
  (WPLASMAI=    0.000 imaginary part of plasma frequency in eV, 0.658/RTIME)
   DFIELD  = 0.0000000 0.0000000 0.0000000 field for delta impulse in time
 
 Orbital magnetization related:
   ORBITALMAG=     F  switch on orbital magnetization
   LCHIMAG   =     F  perturbation theory with respect to B field
   DQ        =  0.001000  dq finite difference perturbation B field
   LLRAUG    =     F  two centre corrections for induced B field



--------------------------------------------------------------------------------------------------------


 Static calculation
 charge density and potential will be updated during run
 non-spin polarized calculation
 Conjugate gradient for all bands (Freysoldt, et al. PRB 79, 241103 (2009))
 preconditioned conjugated gradient                                        
 perform sub-space diagonalisation
    before iterative eigenvector-optimisation
 modified Broyden-mixing scheme, WC =      100.0
 initial mixing is a Kerker type mixing with AMIX =  0.4000 and BMIX =      1.0000
 Hartree-type preconditioning will be used
 using additional bands           28
 reciprocal scheme for non local part
 use partial core corrections
 no Harris-corrections to forces 
 use gradient corrections 
 use of overlap-Matrix (Vanderbilt PP)
 Gauss-broadening in eV      SIGMA  =   0.01


--------------------------------------------------------------------------------------------------------


  energy-cutoff  :     1000.00
  volume of cell :     3288.85
      direct lattice vectors                 reciprocal lattice vectors
    12.325000000  0.000000000  0.000000000     0.081135903  0.046843835  0.000000000
    -6.162500000 10.673763102  0.000000000     0.000000000  0.093687670  0.000000000
     0.000000000  0.000000000 25.000000000     0.000000000  0.000000000  0.040000000

  length of vectors
    12.325000000 12.325000000 25.000000000     0.093687670  0.093687670  0.040000000


 
 k-points in units of 2pi/SCALE and weight: auto                                    
   0.00000000  0.00000000  0.00000000       1.000
 
 k-points in reciprocal lattice and weights: auto                                    
   0.00000000  0.00000000  0.00000000       1.000
 
 position of ions in fractional coordinates (direct lattice) 
   0.97245084  0.00032082  0.00056671
   0.03911838  0.13365950  0.00044017
   0.17244363  0.00029545  0.00049963
   0.23909628  0.13364792  0.00025647
   0.97245206  0.20032201  0.00048522
   0.03912836  0.33364377  0.00044415
   0.17245176  0.20035455  0.00021917
   0.23912436  0.33366572  0.00007226
   0.37246557  0.00032440  0.00045391
   0.43913747  0.13361994  0.00025834
   0.97244982  0.40030936  0.00054761
   0.03912498  0.53363679  0.00057341
   0.37241618  0.40032948  0.00000000
   0.43909960  0.53363898  0.00023241
   0.57244368  0.00031213  0.00055958
   0.63911021  0.13363175  0.00054727
   0.97245270  0.60030565  0.00064029
   0.03912449  0.73364036  0.00065451
   0.57243347  0.60030624  0.00040289
   0.63911189  0.73364188  0.00052791
   0.17245463  0.40031823  0.00028904
   0.23912018  0.53363655  0.00037851
   0.37245975  0.20029599  0.00008900
   0.43910710  0.33367342  0.00005576
   0.17245216  0.60031151  0.00052434
   0.23912337  0.73363857  0.00057513
   0.57243108  0.20028917  0.00041330
   0.63911277  0.33361863  0.00046238
   0.37243981  0.60030802  0.00036284
   0.43911609  0.73363786  0.00049419
   0.57246936  0.40032050  0.00033992
   0.63911941  0.53365087  0.00045961
   0.77244572  0.00031543  0.00059616
   0.83911628  0.13364020  0.00057531
   0.77244051  0.20030743  0.00058103
   0.83912024  0.33363573  0.00058547
   0.77244632  0.40029837  0.00058298
   0.83911898  0.53363396  0.00062110
   0.77245614  0.60030817  0.00059571
   0.83911503  0.73364318  0.00063151
   0.97245531  0.80030558  0.00065223
   0.03911471  0.93364329  0.00059805
   0.17245797  0.80031221  0.00062337
   0.23913455  0.93364719  0.00054485
   0.37245140  0.80031667  0.00055140
   0.43912449  0.93364477  0.00054143
   0.57244110  0.80031005  0.00053453
   0.63911507  0.93363899  0.00058764
   0.77244510  0.80031319  0.00060206
   0.83911661  0.93364434  0.00060683
   0.37302101  0.25122688  0.11224620
   0.42087980  0.18931315  0.11482308
   0.32515698  0.31316719  0.10986801
 
 position of ions in cartesian coordinates  (Angst):
  11.98347958  0.00342433  0.01416777
  -0.34154264  1.42664989  0.01100432
   2.12354700  0.00315355  0.01249070
   2.12325634  1.42652621  0.00641170
  10.75098721  2.13818970  0.01213047
  -1.57382270  3.56123457  0.01110375
   0.89078307  2.13853702  0.00547917
   0.89099273  3.56146885  0.00180651
   4.58863896  0.00346260  0.01134782
   4.58893648  1.42622757  0.00645846
   9.51853763  4.27280730  0.01369027
  -2.80632132  5.69591267  0.01433526
   2.12299894  4.27302204  0.00000000
   2.12335237  5.69593607  0.00581036
   7.05344483  0.00333155  0.01398950
   7.05352764  1.42635365  0.01368187
   8.28609598  6.40752033  0.01600723
  -4.03884931  7.83070339  0.01636283
   3.35585531  6.40752662  0.01007237
   3.35598594  7.83071962  0.01319763
  -0.34145776  4.27290193  0.00722612
  -0.34137895  5.69591010  0.00946273
   3.35624236  2.13791198  0.00222492
   3.35573251  3.56155103  0.00139405
  -1.57394684  6.40758280  0.01310850
  -1.57385216  7.83068434  0.01437823
   5.82093107  2.13783916  0.01033241
   5.82114012  3.56096622  0.01155939
   0.89092245  6.40754561  0.00907111
   0.89106251  7.83067670  0.01235474
   4.58870974  4.27292622  0.00849795
   4.58852320  5.69606300  0.01149026
   9.51844972  0.00336679  0.01490402
   9.51855036  1.42644387  0.01438264
   8.28593477  2.13803408  0.01452582
   8.28612680  3.56114872  0.01463668
   7.05356221  4.27268994  0.01457444
   7.05362213  5.69588251  0.01552751
   5.82112285  6.40754723  0.01489279
   5.82101669  7.83073350  0.01578780
   7.05362858  8.54227219  0.01630582
  -5.27148792  9.96548729  0.01495127
  -2.80637951  8.54234295  0.01558431
  -2.80626749  9.96552896  0.01362126
  -0.34148805  8.54239058  0.01378498
  -0.34137657  9.96550309  0.01353576
   2.12342586  8.54231992  0.01336337
   2.12354296  9.96544135  0.01469111
   4.58845581  8.54235337  0.01505154
   4.58852904  9.96549848  0.01517076
   3.04929830  2.68153618  2.80615512
   4.02070129  2.02068374  2.87057698
   2.07766701  3.34267235  2.74670025
 


--------------------------------------------------------------------------------------------------------


 k-point   1 :   0.0000 0.0000 0.0000  plane waves:  236157

 maximum and minimum number of plane-waves per node :      8440     8428

 maximum number of plane-waves:    236157
 maximum index in each direction: 
   IXMAX=   31   IYMAX=   31   IZMAX=   64
   IXMIN=  -31   IYMIN=  -31   IZMIN=  -64


 parallel 3D FFT for wavefunctions:
    minimum data exchange during FFTs selected (reduces bandwidth)
 parallel 3D FFT for charge:
    minimum data exchange during FFTs selected (reduces bandwidth)


 total amount of memory used by VASP MPI-rank0   100580. kBytes
=======================================================================

   base      :      30000. kBytes
   nonl-proj :       8229. kBytes
   fftplans  :      18352. kBytes
   grid      :      30208. kBytes
   one-center:          6. kBytes
   wavefun   :      13785. kBytes
 
     INWAV:  cpu time    0.0000: real time    0.0000
 Broyden mixing: mesh for mixing (old mesh)
   NGX = 63   NGY = 63   NGZ =129
  (NGX  =256   NGY  =256   NGZ  =540)
  gives a total of 512001 points

 initial charge density was supplied:
 charge density of overlapping atoms calculated
 number of electron     216.0000000 magnetization 
 keeping initial charge density in first step


--------------------------------------------------------------------------------------------------------


 Maximum index for augmentation-charges          471 (set IRDMAX)


--------------------------------------------------------------------------------------------------------


 First call to EWALD:  gamma=   0.119
 Maximum number of real-space cells 4x 4x 2
 Maximum number of reciprocal cells 2x 2x 4

    FEWALD:  cpu time    0.0025: real time    0.0025


--------------------------------------- Iteration      1(   1)  ---------------------------------------


vdW kernel read from vdw_kernel.bindat
  0.0000  0.2424  0.5071  0.7962  1.1119  1.4567  1.8333  2.2446  2.6937  3.1842
  3.7199  4.3049  4.9438  5.6415  6.4036  7.2358  8.1446  9.1372 10.2212 11.4050
 12.6979 14.1099 15.6519 17.3360 19.1751 21.1837 23.3773 25.7729 28.3892 31.2465
 34.3669 37.7748 41.4965 45.5611 50.0000
 
    POTLOK:  cpu time    4.6055: real time    4.6440
    SETDIJ:  cpu time    0.0551: real time    0.0553
    TRIAL :  cpu time    2.0769: real time    2.0977
    CORREC:  cpu time    0.0004: real time    0.0006
    --------------------------------------------
      LOOP:  cpu time    6.7444: real time    6.8064

 eigenvalue-minimisations  :   288
 total energy-change (2. order) : 0.2771460E+04  (-0.1020258E+05)
 number of electron     216.0000000 magnetization 
 augmentation part      216.0000000 magnetization 

 Free energy of the ion-electron system (eV)
  ---------------------------------------------------
  alpha Z        PSCENC =        47.94900195
  Ewald energy   TEWEN  =     48114.18302124
  -Hartree energ DENC   =    -54181.92891958
  -exchange      EXHF   =         0.00000000
  -V(xc)+E(xc)   XCENC  =       412.78732338
  PAW double counting   =      6548.36373666    -6261.59511771
  entropy T*S    EENTRO =        -0.00000000
  eigenvalues    EBANDS =      -329.24527302
  atomic energy  EATOM  =      8420.94593319
  ---------------------------------------------------
  free energy    TOTEN  =      2771.45970612 eV

  energy without entropy =     2771.45970612  energy(sigma->0) =     2771.45970612


--------------------------------------------------------------------------------------------------------




--------------------------------------- Iteration      1(   2)  ---------------------------------------


    TRIAL :  cpu time    2.8545: real time    2.8810
    CORREC:  cpu time    0.0001: real time    0.0001
    --------------------------------------------
      LOOP:  cpu time    2.9310: real time    2.9588

 eigenvalue-minimisations  :   448
 total energy-change (2. order) :-0.2333237E+04  (-0.2184883E+04)
 number of electron     216.0000000 magnetization 
 augmentation part      216.0000000 magnetization 

 Free energy of the ion-electron system (eV)
  ---------------------------------------------------
  alpha Z        PSCENC =        47.94900195
  Ewald energy   TEWEN  =     48114.18302124
  -Hartree energ DENC   =    -54181.92891958
  -exchange      EXHF   =         0.00000000
  -V(xc)+E(xc)   XCENC  =       412.78732338
  PAW double counting   =      6548.36373666    -6261.59511771
  entropy T*S    EENTRO =        -0.00000027
  eigenvalues    EBANDS =     -2662.48178304
  atomic energy  EATOM  =      8420.94593319
  ---------------------------------------------------
  free energy    TOTEN  =       438.22319583 eV

  energy without entropy =      438.22319610  energy(sigma->0) =      438.22319597


--------------------------------------------------------------------------------------------------------




--------------------------------------- Iteration      1(   3)  ---------------------------------------


    TRIAL :  cpu time    2.4097: real time    2.4308
    CORREC:  cpu time    0.0001: real time    0.0001
    --------------------------------------------
      LOOP:  cpu time    2.4729: real time    2.4967

 eigenvalue-minimisations  :   360
 total energy-change (2. order) :-0.8213751E+03  (-0.8066940E+03)
 number of electron     216.0000000 magnetization 
 augmentation part      216.0000000 magnetization 

 Free energy of the ion-electron system (eV)
  ---------------------------------------------------
  alpha Z        PSCENC =        47.94900195
  Ewald energy   TEWEN  =     48114.18302124
  -Hartree energ DENC   =    -54181.92891958
  -exchange      EXHF   =         0.00000000
  -V(xc)+E(xc)   XCENC  =       412.78732338
  PAW double counting   =      6548.36373666    -6261.59511771
  entropy T*S    EENTRO =        -0.00000000
  eigenvalues    EBANDS =     -3483.85692758
  atomic energy  EATOM  =      8420.94593319
  ---------------------------------------------------
  free energy    TOTEN  =      -383.15194844 eV

  energy without entropy =     -383.15194844  energy(sigma->0) =     -383.15194844


--------------------------------------------------------------------------------------------------------




--------------------------------------- Iteration      1(   4)  ---------------------------------------


    TRIAL :  cpu time    2.2464: real time    2.2668
    CORREC:  cpu time    0.0001: real time    0.0001
    --------------------------------------------
      LOOP:  cpu time    2.2826: real time    2.3151

 eigenvalue-minimisations  :   328
 total energy-change (2. order) :-0.7481472E+02  (-0.7384142E+02)
 number of electron     216.0000000 magnetization 
 augmentation part      216.0000000 magnetization 

 Free energy of the ion-electron system (eV)
  ---------------------------------------------------
  alpha Z        PSCENC =        47.94900195
  Ewald energy   TEWEN  =     48114.18302124
  -Hartree energ DENC   =    -54181.92891958
  -exchange      EXHF   =         0.00000000
  -V(xc)+E(xc)   XCENC  =       412.78732338
  PAW double counting   =      6548.36373666    -6261.59511771
  entropy T*S    EENTRO =        -0.00000000
  eigenvalues    EBANDS =     -3558.67164514
  atomic energy  EATOM  =      8420.94593319
  ---------------------------------------------------
  free energy    TOTEN  =      -457.96666600 eV

  energy without entropy =     -457.96666600  energy(sigma->0) =     -457.96666600


--------------------------------------------------------------------------------------------------------




--------------------------------------- Iteration      1(   5)  ---------------------------------------


    TRIAL :  cpu time    2.4451: real time    2.4663
    CORREC:  cpu time    0.0001: real time    0.0001
    CHARGE:  cpu time    0.1813: real time    0.1835
    --------------------------------------------
      LOOP:  cpu time    2.6636: real time    2.6908

 eigenvalue-minimisations  :   368
 total energy-change (2. order) :-0.2216000E+01  (-0.2205248E+01)
 number of electron     216.0000000 magnetization 
 augmentation part       -0.2321314 magnetization 

 Free energy of the ion-electron system (eV)
  ---------------------------------------------------
  alpha Z        PSCENC =        47.94900195
  Ewald energy   TEWEN  =     48114.18302124
  -Hartree energ DENC   =    -54181.92891958
  -exchange      EXHF   =         0.00000000
  -V(xc)+E(xc)   XCENC  =       412.78732338
  PAW double counting   =      6548.36373666    -6261.59511771
  entropy T*S    EENTRO =        -0.00000000
  eigenvalues    EBANDS =     -3560.88764468
  atomic energy  EATOM  =      8420.94593319
  ---------------------------------------------------
  free energy    TOTEN  =      -460.18266554 eV

  energy without entropy =     -460.18266554  energy(sigma->0) =     -460.18266554


--------------------------------------------------------------------------------------------------------




--------------------------------------- Iteration      1(   6)  ---------------------------------------


    POTLOK:  cpu time    4.2691: real time    4.2993
    SETDIJ:  cpu time    0.0538: real time    0.0540
    TRIAL :  cpu time    1.1600: real time    1.1706
    CORREC:  cpu time    4.7687: real time    4.8038
    CHARGE:  cpu time    0.1787: real time    0.1804
    --------------------------------------------
      LOOP:  cpu time   10.4562: real time   10.5559

 eigenvalue-minimisations  :     0
 total energy-change (2. order) : 0.5196386E+02  (-0.1626784E+02)
 number of electron     216.0000000 magnetization 
 augmentation part       -0.3277403 magnetization 

 Free energy of the ion-electron system (eV)
  ---------------------------------------------------
  alpha Z        PSCENC =        47.94900195
  Ewald energy   TEWEN  =     48114.18302124
  -Hartree energ DENC   =    -55626.61845837
  -exchange      EXHF   =         0.00000000
  -V(xc)+E(xc)   XCENC  =       460.04322093
  PAW double counting   =     80464.49178061   -80184.10363844
  entropy T*S    EENTRO =        -0.00000000
  eigenvalues    EBANDS =     -2105.10967074
  atomic energy  EATOM  =      8420.94593319
  ---------------------------------------------------
  free energy    TOTEN  =      -408.21880963 eV

  energy without entropy =     -408.21880963  energy(sigma->0) =     -408.21880963


--------------------------------------------------------------------------------------------------------




--------------------------------------- Iteration      1(   7)  ---------------------------------------


    POTLOK:  cpu time    4.2659: real time    4.2971
    SETDIJ:  cpu time    0.0539: real time    0.0540
    TRIAL :  cpu time    1.1518: real time    1.1639
    CORREC:  cpu time    4.7696: real time    4.8094
    CHARGE:  cpu time    0.1787: real time    0.1804
    --------------------------------------------
      LOOP:  cpu time   10.4781: real time   10.5691

 eigenvalue-minimisations  :     0
 total energy-change (2. order) :-0.1630490E+02  (-0.1762557E+01)
 number of electron     216.0000000 magnetization 
 augmentation part       -0.3755488 magnetization 

 Free energy of the ion-electron system (eV)
  ---------------------------------------------------
  alpha Z        PSCENC =        47.94900195
  Ewald energy   TEWEN  =     48114.18302124
  -Hartree energ DENC   =    -55095.02995782
  -exchange      EXHF   =         0.00000000
  -V(xc)+E(xc)   XCENC  =       442.85631086
  PAW double counting   =     95767.23558590   -95484.12631417
  entropy T*S    EENTRO =        -0.00000000
  eigenvalues    EBANDS =     -2638.53728687
  atomic energy  EATOM  =      8420.94593319
  ---------------------------------------------------
  free energy    TOTEN  =      -424.52370572 eV

  energy without entropy =     -424.52370572  energy(sigma->0) =     -424.52370572


--------------------------------------------------------------------------------------------------------




--------------------------------------- Iteration      1(   8)  ---------------------------------------


    POTLOK:  cpu time    4.2690: real time    4.2986
    SETDIJ:  cpu time    0.0538: real time    0.0540
    TRIAL :  cpu time    1.1554: real time    1.1651
    CORREC:  cpu time    4.7487: real time    4.7829
    CHARGE:  cpu time    0.1795: real time    0.1813
    --------------------------------------------
      LOOP:  cpu time   10.4856: real time   10.5647

 eigenvalue-minimisations  :     0
 total energy-change (2. order) :-0.1762849E+01  (-0.4882321E+00)
 number of electron     216.0000000 magnetization 
 augmentation part       -0.3927496 magnetization 

 Free energy of the ion-electron system (eV)
  ---------------------------------------------------
  alpha Z        PSCENC =        47.94900195
  Ewald energy   TEWEN  =     48114.18302124
  -Hartree energ DENC   =    -55078.82279204
  -exchange      EXHF   =         0.00000000
  -V(xc)+E(xc)   XCENC  =       442.47106513
  PAW double counting   =     99829.00981905   -99545.57655635
  entropy T*S    EENTRO =        -0.00000000
  eigenvalues    EBANDS =     -2656.44604642
  atomic energy  EATOM  =      8420.94593319
  ---------------------------------------------------
  free energy    TOTEN  =      -426.28655425 eV

  energy without entropy =     -426.28655425  energy(sigma->0) =     -426.28655425


--------------------------------------------------------------------------------------------------------




--------------------------------------- Iteration      1(   9)  ---------------------------------------


    POTLOK:  cpu time    4.2602: real time    4.2906
    SETDIJ:  cpu time    0.0538: real time    0.0540
    TRIAL :  cpu time    1.1544: real time    1.1653
    CORREC:  cpu time    4.7778: real time    4.8142
    CHARGE:  cpu time    0.1792: real time    0.1812
    --------------------------------------------
      LOOP:  cpu time   10.5206: real time   10.6011

 eigenvalue-minimisations  :     0
 total energy-change (2. order) :-0.4880289E+00  (-0.1880117E+00)
 number of electron     216.0000000 magnetization 
 augmentation part       -0.4008000 magnetization 

 Free energy of the ion-electron system (eV)
  ---------------------------------------------------
  alpha Z        PSCENC =        47.94900195
  Ewald energy   TEWEN  =     48114.18302124
  -Hartree energ DENC   =    -55091.05652008
  -exchange      EXHF   =         0.00000000
  -V(xc)+E(xc)   XCENC  =       442.61645002
  PAW double counting   =    102518.18551763  -102234.61136068
  entropy T*S    EENTRO =        -0.00000000
  eigenvalues    EBANDS =     -2644.98662644
  atomic energy  EATOM  =      8420.94593319
  ---------------------------------------------------
  free energy    TOTEN  =      -426.77458317 eV

  energy without entropy =     -426.77458317  energy(sigma->0) =     -426.77458317


--------------------------------------------------------------------------------------------------------




--------------------------------------- Iteration      1(  10)  ---------------------------------------


    POTLOK:  cpu time    4.2885: real time    4.3193
    SETDIJ:  cpu time    0.0540: real time    0.0542
    TRIAL :  cpu time    1.1804: real time    1.1920
    CORREC:  cpu time    4.7686: real time    4.8048
    CHARGE:  cpu time    0.1788: real time    0.1805
    --------------------------------------------
      LOOP:  cpu time   10.5206: real time   10.6085

 eigenvalue-minimisations  :     0
 total energy-change (2. order) :-0.1874536E+00  (-0.8834115E-01)
 number of electron     216.0000000 magnetization 
 augmentation part       -0.4016449 magnetization 

 Free energy of the ion-electron system (eV)
  ---------------------------------------------------
  alpha Z        PSCENC =        47.94900195
  Ewald energy   TEWEN  =     48114.18302124
  -Hartree energ DENC   =    -55086.84026683
  -exchange      EXHF   =         0.00000000
  -V(xc)+E(xc)   XCENC  =       442.47544190
  PAW double counting   =    103086.48148534  -102802.82258540
  entropy T*S    EENTRO =        -0.00000000
  eigenvalues    EBANDS =     -2649.33406820
  atomic energy  EATOM  =      8420.94593319
  ---------------------------------------------------
  free energy    TOTEN  =      -426.96203681 eV

  energy without entropy =     -426.96203681  energy(sigma->0) =     -426.96203681


--------------------------------------------------------------------------------------------------------




--------------------------------------- Iteration      1(  11)  ---------------------------------------


    POTLOK:  cpu time    4.2663: real time    4.3016
    SETDIJ:  cpu time    0.0538: real time    0.0540
    TRIAL :  cpu time    1.1559: real time    1.1680
    CORREC:  cpu time    4.7387: real time    4.7799
    CHARGE:  cpu time    0.1785: real time    0.1805
    --------------------------------------------
      LOOP:  cpu time   10.4174: real time   10.5089

 eigenvalue-minimisations  :     0
 total energy-change (2. order) :-0.8782523E-01  (-0.3527192E-01)
 number of electron     216.0000000 magnetization 
 augmentation part       -0.4009457 magnetization 

 Free energy of the ion-electron system (eV)
  ---------------------------------------------------
  alpha Z        PSCENC =        47.94900195
  Ewald energy   TEWEN  =     48114.18302124
  -Hartree energ DENC   =    -55079.48258822
  -exchange      EXHF   =         0.00000000
  -V(xc)+E(xc)   XCENC  =       442.35884773
  PAW double counting   =    102644.59913788  -102360.94388216
  entropy T*S    EENTRO =        -0.00000000
  eigenvalues    EBANDS =     -2656.65933367
  atomic energy  EATOM  =      8420.94593319
  ---------------------------------------------------
  free energy    TOTEN  =      -427.04986204 eV

  energy without entropy =     -427.04986204  energy(sigma->0) =     -427.04986204


--------------------------------------------------------------------------------------------------------




--------------------------------------- Iteration      1(  12)  ---------------------------------------


    POTLOK:  cpu time    4.2872: real time    4.3190
    SETDIJ:  cpu time    0.0539: real time    0.0541
    TRIAL :  cpu time    1.1550: real time    1.1658
    CORREC:  cpu time    4.7817: real time    4.8234
    CHARGE:  cpu time    0.1793: real time    0.1811
    --------------------------------------------
      LOOP:  cpu time   10.5381: real time   10.6248

 eigenvalue-minimisations  :     0
 total energy-change (2. order) :-0.3515633E-01  (-0.1104727E-01)
 number of electron     216.0000000 magnetization 
 augmentation part       -0.4006221 magnetization 

 Free energy of the ion-electron system (eV)
  ---------------------------------------------------
  alpha Z        PSCENC =        47.94900195
  Ewald energy   TEWEN  =     48114.18302124
  -Hartree energ DENC   =    -55076.07916707
  -exchange      EXHF   =         0.00000000
  -V(xc)+E(xc)   XCENC  =       442.28912726
  PAW double counting   =    102261.62148159  -101977.99090563
  entropy T*S    EENTRO =        -0.00000000
  eigenvalues    EBANDS =     -2660.00351091
  atomic energy  EATOM  =      8420.94593319
  ---------------------------------------------------
  free energy    TOTEN  =      -427.08501838 eV

  energy without entropy =     -427.08501838  energy(sigma->0) =     -427.08501838


--------------------------------------------------------------------------------------------------------




--------------------------------------- Iteration      1(  13)  ---------------------------------------


    POTLOK:  cpu time    4.3204: real time    4.3520
    SETDIJ:  cpu time    0.0539: real time    0.0541
    TRIAL :  cpu time    1.1578: real time    1.1691
    CORREC:  cpu time    4.7354: real time    4.7754
    CHARGE:  cpu time    0.1795: real time    0.1815
    --------------------------------------------
      LOOP:  cpu time   10.5073: real time   10.6013

 eigenvalue-minimisations  :     0
 total energy-change (2. order) :-0.1104149E-01  (-0.3385277E-02)
 number of electron     216.0000000 magnetization 
 augmentation part       -0.3999466 magnetization 

 Free energy of the ion-electron system (eV)
  ---------------------------------------------------
  alpha Z        PSCENC =        47.94900195
  Ewald energy   TEWEN  =     48114.18302124
  -Hartree energ DENC   =    -55075.58232065
  -exchange      EXHF   =         0.00000000
  -V(xc)+E(xc)   XCENC  =       442.27249601
  PAW double counting   =    102109.54677682  -101825.92899657
  entropy T*S    EENTRO =        -0.00000000
  eigenvalues    EBANDS =     -2660.48197185
  atomic energy  EATOM  =      8420.94593319
  ---------------------------------------------------
  free energy    TOTEN  =      -427.09605987 eV

  energy without entropy =     -427.09605987  energy(sigma->0) =     -427.09605987


--------------------------------------------------------------------------------------------------------




--------------------------------------- Iteration      1(  14)  ---------------------------------------


    POTLOK:  cpu time    4.2920: real time    4.3232
    SETDIJ:  cpu time    0.0539: real time    0.0541
    TRIAL :  cpu time    1.1520: real time    1.1647
    CORREC:  cpu time    4.7626: real time    4.7992
    CHARGE:  cpu time    0.1793: real time    0.1810
    --------------------------------------------
      LOOP:  cpu time   10.4831: real time   10.5774

 eigenvalue-minimisations  :     0
 total energy-change (2. order) :-0.3387375E-02  (-0.1359514E-02)
 number of electron     216.0000000 magnetization 
 augmentation part       -0.3995176 magnetization 

 Free energy of the ion-electron system (eV)
  ---------------------------------------------------
  alpha Z        PSCENC =        47.94900195
  Ewald energy   TEWEN  =     48114.18302124
  -Hartree energ DENC   =    -55075.67186466
  -exchange      EXHF   =         0.00000000
  -V(xc)+E(xc)   XCENC  =       442.27284781
  PAW double counting   =    102087.74225754  -101804.13022606
  entropy T*S    EENTRO =        -0.00000000
  eigenvalues    EBANDS =     -2660.39041825
  atomic energy  EATOM  =      8420.94593319
  ---------------------------------------------------
  free energy    TOTEN  =      -427.09944724 eV

  energy without entropy =     -427.09944724  energy(sigma->0) =     -427.09944724


--------------------------------------------------------------------------------------------------------




--------------------------------------- Iteration      1(  15)  ---------------------------------------


    POTLOK:  cpu time    4.2871: real time    4.3194
    SETDIJ:  cpu time    0.0538: real time    0.0540
    TRIAL :  cpu time    1.1536: real time    1.1653
    CORREC:  cpu time    4.7497: real time    4.7903
    CHARGE:  cpu time    0.1789: real time    0.1807
    --------------------------------------------
      LOOP:  cpu time   10.4703: real time   10.5825

 eigenvalue-minimisations  :     0
 total energy-change (2. order) :-0.1362637E-02  (-0.7889987E-03)
 number of electron     216.0000000 magnetization 
 augmentation part       -0.3990644 magnetization 

 Free energy of the ion-electron system (eV)
  ---------------------------------------------------
  alpha Z        PSCENC =        47.94900195
  Ewald energy   TEWEN  =     48114.18302124
  -Hartree energ DENC   =    -55075.33115108
  -exchange      EXHF   =         0.00000000
  -V(xc)+E(xc)   XCENC  =       442.25732382
  PAW double counting   =    102074.28779883  -101790.67484250
  entropy T*S    EENTRO =        -0.00000000
  eigenvalues    EBANDS =     -2660.71789533
  atomic energy  EATOM  =      8420.94593319
  ---------------------------------------------------
  free energy    TOTEN  =      -427.10080988 eV

  energy without entropy =     -427.10080988  energy(sigma->0) =     -427.10080988


--------------------------------------------------------------------------------------------------------




--------------------------------------- Iteration      1(  16)  ---------------------------------------


    POTLOK:  cpu time    4.3080: real time    4.3433
    SETDIJ:  cpu time    0.0539: real time    0.0540
    TRIAL :  cpu time    1.1532: real time    1.1641
    CORREC:  cpu time    4.7663: real time    4.8054
    CHARGE:  cpu time    0.1791: real time    0.1809
    --------------------------------------------
      LOOP:  cpu time   10.4652: real time   10.5791

 eigenvalue-minimisations  :     0
 total energy-change (2. order) :-0.7909519E-03  (-0.4457190E-03)
 number of electron     216.0000000 magnetization 
 augmentation part       -0.3988980 magnetization 

 Free energy of the ion-electron system (eV)
  ---------------------------------------------------
  alpha Z        PSCENC =        47.94900195
  Ewald energy   TEWEN  =     48114.18302124
  -Hartree energ DENC   =    -55075.71148271
  -exchange      EXHF   =         0.00000000
  -V(xc)+E(xc)   XCENC  =       442.26838654
  PAW double counting   =    102012.36847431  -101728.75660126
  entropy T*S    EENTRO =        -0.00000000
  eigenvalues    EBANDS =     -2660.34833409
  atomic energy  EATOM  =      8420.94593319
  ---------------------------------------------------
  free energy    TOTEN  =      -427.10160083 eV

  energy without entropy =     -427.10160083  energy(sigma->0) =     -427.10160083


--------------------------------------------------------------------------------------------------------




--------------------------------------- Iteration      1(  17)  ---------------------------------------


    POTLOK:  cpu time    4.2796: real time    4.3101
    SETDIJ:  cpu time    0.0538: real time    0.0540
    TRIAL :  cpu time    1.1538: real time    1.1645
    CORREC:  cpu time    4.7424: real time    4.7775
    CHARGE:  cpu time    0.1789: real time    0.1806
    --------------------------------------------
      LOOP:  cpu time   10.4285: real time   10.5173

 eigenvalue-minimisations  :     0
 total energy-change (2. order) :-0.4457661E-03  (-0.1906215E-03)
 number of electron     216.0000000 magnetization 
 augmentation part       -0.3990485 magnetization 

 Free energy of the ion-electron system (eV)
  ---------------------------------------------------
  alpha Z        PSCENC =        47.94900195
  Ewald energy   TEWEN  =     48114.18302124
  -Hartree energ DENC   =    -55076.01473464
  -exchange      EXHF   =         0.00000000
  -V(xc)+E(xc)   XCENC  =       442.27658511
  PAW double counting   =    101955.39481957  -101671.78264931
  entropy T*S    EENTRO =        -0.00000000
  eigenvalues    EBANDS =     -2660.05402372
  atomic energy  EATOM  =      8420.94593319
  ---------------------------------------------------
  free energy    TOTEN  =      -427.10204659 eV

  energy without entropy =     -427.10204659  energy(sigma->0) =     -427.10204659


--------------------------------------------------------------------------------------------------------




--------------------------------------- Iteration      1(  18)  ---------------------------------------


    POTLOK:  cpu time    4.2830: real time    4.3129
    SETDIJ:  cpu time    0.0538: real time    0.0539
    TRIAL :  cpu time    1.1616: real time    1.1720
    CORREC:  cpu time    4.7529: real time    4.7908
    CHARGE:  cpu time    0.1794: real time    0.1811
    --------------------------------------------
      LOOP:  cpu time   10.4907: real time   10.5736

 eigenvalue-minimisations  :     0
 total energy-change (2. order) :-0.1902706E-03  (-0.7433723E-04)
 number of electron     216.0000000 magnetization 
 augmentation part       -0.3992043 magnetization 

 Free energy of the ion-electron system (eV)
  ---------------------------------------------------
  alpha Z        PSCENC =        47.94900195
  Ewald energy   TEWEN  =     48114.18302124
  -Hartree energ DENC   =    -55075.95854819
  -exchange      EXHF   =         0.00000000
  -V(xc)+E(xc)   XCENC  =       442.27497963
  PAW double counting   =    101951.38521477  -101667.77154862
  entropy T*S    EENTRO =        -0.00000000
  eigenvalues    EBANDS =     -2660.11029084
  atomic energy  EATOM  =      8420.94593319
  ---------------------------------------------------
  free energy    TOTEN  =      -427.10223687 eV

  energy without entropy =     -427.10223687  energy(sigma->0) =     -427.10223687


--------------------------------------------------------------------------------------------------------




--------------------------------------- Iteration      1(  19)  ---------------------------------------


    POTLOK:  cpu time    4.2862: real time    4.3170
    SETDIJ:  cpu time    0.0539: real time    0.0541
    TRIAL :  cpu time    1.1524: real time    1.1647
    CORREC:  cpu time    4.7396: real time    4.7791
    CHARGE:  cpu time    0.1789: real time    0.1807
    --------------------------------------------
      LOOP:  cpu time   10.4350: real time   10.5247

 eigenvalue-minimisations  :     0
 total energy-change (2. order) :-0.7384509E-04  (-0.3193675E-04)
 number of electron     216.0000000 magnetization 
 augmentation part       -0.3993250 magnetization 

 Free energy of the ion-electron system (eV)
  ---------------------------------------------------
  alpha Z        PSCENC =        47.94900195
  Ewald energy   TEWEN  =     48114.18302124
  -Hartree energ DENC   =    -55075.99485275
  -exchange      EXHF   =         0.00000000
  -V(xc)+E(xc)   XCENC  =       442.27689359
  PAW double counting   =    101971.91019576  -101688.29625803
  entropy T*S    EENTRO =        -0.00000000
  eigenvalues    EBANDS =     -2660.07624566
  atomic energy  EATOM  =      8420.94593319
  ---------------------------------------------------
  free energy    TOTEN  =      -427.10231071 eV

  energy without entropy =     -427.10231071  energy(sigma->0) =     -427.10231071


--------------------------------------------------------------------------------------------------------




--------------------------------------- Iteration      1(  20)  ---------------------------------------


    POTLOK:  cpu time    4.2762: real time    4.3053
    SETDIJ:  cpu time    0.0539: real time    0.0541
    TRIAL :  cpu time    1.1550: real time    1.1652
    CORREC:  cpu time    4.7526: real time    4.7884
    CHARGE:  cpu time    0.1787: real time    0.1806
    --------------------------------------------
      LOOP:  cpu time   10.4572: real time   10.5386

 eigenvalue-minimisations  :     0
 total energy-change (2. order) :-0.3158193E-04  (-0.1514776E-04)
 number of electron     216.0000000 magnetization 
 augmentation part       -0.3993203 magnetization 

 Free energy of the ion-electron system (eV)
  ---------------------------------------------------
  alpha Z        PSCENC =        47.94900195
  Ewald energy   TEWEN  =     48114.18302124
  -Hartree energ DENC   =    -55075.92042563
  -exchange      EXHF   =         0.00000000
  -V(xc)+E(xc)   XCENC  =       442.27469218
  PAW double counting   =    101988.70150006  -101705.08723729
  entropy T*S    EENTRO =        -0.00000000
  eigenvalues    EBANDS =     -2660.14882799
  atomic energy  EATOM  =      8420.94593319
  ---------------------------------------------------
  free energy    TOTEN  =      -427.10234229 eV

  energy without entropy =     -427.10234229  energy(sigma->0) =     -427.10234229


--------------------------------------------------------------------------------------------------------




--------------------------------------- Iteration      1(  21)  ---------------------------------------


    POTLOK:  cpu time    4.2965: real time    4.3259
    SETDIJ:  cpu time    0.0537: real time    0.0539
    TRIAL :  cpu time    1.1533: real time    1.1640
    CORREC:  cpu time    4.7686: real time    4.8042
    CHARGE:  cpu time    0.1793: real time    0.1810
    --------------------------------------------
      LOOP:  cpu time   10.4832: real time   10.5726

 eigenvalue-minimisations  :     0
 total energy-change (2. order) :-0.1498702E-04  (-0.6905115E-05)
 number of electron     216.0000000 magnetization 
 augmentation part       -0.3993121 magnetization 

 Free energy of the ion-electron system (eV)
  ---------------------------------------------------
  alpha Z        PSCENC =        47.94900195
  Ewald energy   TEWEN  =     48114.18302124
  -Hartree energ DENC   =    -55075.91927597
  -exchange      EXHF   =         0.00000000
  -V(xc)+E(xc)   XCENC  =       442.27525445
  PAW double counting   =    101994.58456357  -101710.97078700
  entropy T*S    EENTRO =        -0.00000000
  eigenvalues    EBANDS =     -2660.15006872
  atomic energy  EATOM  =      8420.94593319
  ---------------------------------------------------
  free energy    TOTEN  =      -427.10235728 eV

  energy without entropy =     -427.10235728  energy(sigma->0) =     -427.10235728


--------------------------------------------------------------------------------------------------------




--------------------------------------- Iteration      1(  22)  ---------------------------------------


    POTLOK:  cpu time    4.2692: real time    4.3002
    SETDIJ:  cpu time    0.0539: real time    0.0541
    TRIAL :  cpu time    1.1525: real time    1.1644
    CORREC:  cpu time    4.7390: real time    4.7749
    CHARGE:  cpu time    0.1792: real time    0.1811
    --------------------------------------------
      LOOP:  cpu time   10.4329: real time   10.5159

 eigenvalue-minimisations  :     0
 total energy-change (2. order) :-0.6902555E-05  (-0.2980744E-05)
 number of electron     216.0000000 magnetization 
 augmentation part       -0.3992876 magnetization 

 Free energy of the ion-electron system (eV)
  ---------------------------------------------------
  alpha Z        PSCENC =        47.94900195
  Ewald energy   TEWEN  =     48114.18302124
  -Hartree energ DENC   =    -55075.86589015
  -exchange      EXHF   =         0.00000000
  -V(xc)+E(xc)   XCENC  =       442.27375757
  PAW double counting   =    101993.56352489  -101709.94976090
  entropy T*S    EENTRO =        -0.00000000
  eigenvalues    EBANDS =     -2660.20195197
  atomic energy  EATOM  =      8420.94593319
  ---------------------------------------------------
  free energy    TOTEN  =      -427.10236418 eV

  energy without entropy =     -427.10236418  energy(sigma->0) =     -427.10236418


--------------------------------------------------------------------------------------------------------




--------------------------------------- Iteration      1(  23)  ---------------------------------------


    POTLOK:  cpu time    4.2720: real time    4.3021
    SETDIJ:  cpu time    0.0539: real time    0.0541
    TRIAL :  cpu time    1.1547: real time    1.1654
    CORREC:  cpu time    4.7641: real time    4.7997
    CHARGE:  cpu time    0.1795: real time    0.1813
    --------------------------------------------
      LOOP:  cpu time   10.4556: real time   10.5381

 eigenvalue-minimisations  :     0
 total energy-change (2. order) :-0.2998582E-05  (-0.1198475E-05)
 number of electron     216.0000000 magnetization 
 augmentation part       -0.3992778 magnetization 

 Free energy of the ion-electron system (eV)
  ---------------------------------------------------
  alpha Z        PSCENC =        47.94900195
  Ewald energy   TEWEN  =     48114.18302124
  -Hartree energ DENC   =    -55075.86545991
  -exchange      EXHF   =         0.00000000
  -V(xc)+E(xc)   XCENC  =       442.27400487
  PAW double counting   =    101991.51912519  -101707.90549377
  entropy T*S    EENTRO =        -0.00000000
  eigenvalues    EBANDS =     -2660.20249996
  atomic energy  EATOM  =      8420.94593319
  ---------------------------------------------------
  free energy    TOTEN  =      -427.10236718 eV

  energy without entropy =     -427.10236718  energy(sigma->0) =     -427.10236718


--------------------------------------------------------------------------------------------------------




--------------------------------------- Iteration      1(  24)  ---------------------------------------


    POTLOK:  cpu time    4.2679: real time    4.2979
    SETDIJ:  cpu time    0.0538: real time    0.0541
    TRIAL :  cpu time    1.1507: real time    1.1637
    CORREC:  cpu time    4.7850: real time    4.8277
    CHARGE:  cpu time    0.1790: real time    0.1811
    --------------------------------------------
      LOOP:  cpu time   10.5072: real time   10.5966

 eigenvalue-minimisations  :     0
 total energy-change (2. order) :-0.1216671E-05  (-0.5434208E-06)
 number of electron     216.0000000 magnetization 
 augmentation part       -0.3992781 magnetization 

 Free energy of the ion-electron system (eV)
  ---------------------------------------------------
  alpha Z        PSCENC =        47.94900195
  Ewald energy   TEWEN  =     48114.18302124
  -Hartree energ DENC   =    -55075.86463944
  -exchange      EXHF   =         0.00000000
  -V(xc)+E(xc)   XCENC  =       442.27416499
  PAW double counting   =    101990.70011140  -101707.08648745
  entropy T*S    EENTRO =        -0.00000000
  eigenvalues    EBANDS =     -2660.20347429
  atomic energy  EATOM  =      8420.94593319
  ---------------------------------------------------
  free energy    TOTEN  =      -427.10236840 eV

  energy without entropy =     -427.10236840  energy(sigma->0) =     -427.10236840


--------------------------------------------------------------------------------------------------------




--------------------------------------- Iteration      1(  25)  ---------------------------------------


    POTLOK:  cpu time    4.2492: real time    4.2901
    SETDIJ:  cpu time    0.0539: real time    0.0541
    TRIAL :  cpu time    1.1510: real time    1.1645
    CORREC:  cpu time    4.7337: real time    4.7766
    CHARGE:  cpu time    0.1789: real time    0.1812
    --------------------------------------------
      LOOP:  cpu time   10.4020: real time   10.5740

 eigenvalue-minimisations  :     0
 total energy-change (2. order) :-0.5534675E-06  (-0.2621318E-06)
 number of electron     216.0000000 magnetization 
 augmentation part       -0.3992746 magnetization 

 Free energy of the ion-electron system (eV)
  ---------------------------------------------------
  alpha Z        PSCENC =        47.94900195
  Ewald energy   TEWEN  =     48114.18302124
  -Hartree energ DENC   =    -55075.86218972
  -exchange      EXHF   =         0.00000000
  -V(xc)+E(xc)   XCENC  =       442.27403780
  PAW double counting   =    101990.67744449  -101707.06375479
  entropy T*S    EENTRO =        -0.00000000
  eigenvalues    EBANDS =     -2660.20586311
  atomic energy  EATOM  =      8420.94593319
  ---------------------------------------------------
  free energy    TOTEN  =      -427.10236895 eV

  energy without entropy =     -427.10236895  energy(sigma->0) =     -427.10236895


--------------------------------------------------------------------------------------------------------




--------------------------------------- Iteration      1(  26)  ---------------------------------------


    POTLOK:  cpu time    4.2762: real time    4.3062
    SETDIJ:  cpu time    0.0539: real time    0.0540
    TRIAL :  cpu time    1.1531: real time    1.1636
    CORREC:  cpu time    4.7529: real time    4.7880
    CHARGE:  cpu time    0.1795: real time    0.1813
    --------------------------------------------
      LOOP:  cpu time   10.4663: real time   10.5445

 eigenvalue-minimisations  :     0
 total energy-change (2. order) :-0.2645247E-06  (-0.1157769E-06)
 number of electron     216.0000000 magnetization 
 augmentation part       -0.3992739 magnetization 

 Free energy of the ion-electron system (eV)
  ---------------------------------------------------
  alpha Z        PSCENC =        47.94900195
  Ewald energy   TEWEN  =     48114.18302124
  -Hartree energ DENC   =    -55075.87060600
  -exchange      EXHF   =         0.00000000
  -V(xc)+E(xc)   XCENC  =       442.27425933
  PAW double counting   =    101990.86217206  -101707.24849655
  entropy T*S    EENTRO =        -0.00000000
  eigenvalues    EBANDS =     -2660.19765445
  atomic energy  EATOM  =      8420.94593319
  ---------------------------------------------------
  free energy    TOTEN  =      -427.10236922 eV

  energy without entropy =     -427.10236922  energy(sigma->0) =     -427.10236922


--------------------------------------------------------------------------------------------------------




--------------------------------------- Iteration      1(  27)  ---------------------------------------


    POTLOK:  cpu time    4.2657: real time    4.2950
    SETDIJ:  cpu time    0.0538: real time    0.0540
    TRIAL :  cpu time    1.1681: real time    1.1842
    CORREC:  cpu time    4.7414: real time    4.7766
    CHARGE:  cpu time    0.1786: real time    0.1804
    --------------------------------------------
      LOOP:  cpu time   10.4475: real time   10.5432

 eigenvalue-minimisations  :     0
 total energy-change (2. order) :-0.1168519E-06  (-0.5200956E-07)
 number of electron     216.0000000 magnetization 
 augmentation part       -0.3992734 magnetization 

 Free energy of the ion-electron system (eV)
  ---------------------------------------------------
  alpha Z        PSCENC =        47.94900195
  Ewald energy   TEWEN  =     48114.18302124
  -Hartree energ DENC   =    -55075.87230797
  -exchange      EXHF   =         0.00000000
  -V(xc)+E(xc)   XCENC  =       442.27425909
  PAW double counting   =    101991.08630613  -101707.47262481
  entropy T*S    EENTRO =        -0.00000000
  eigenvalues    EBANDS =     -2660.19595816
  atomic energy  EATOM  =      8420.94593319
  ---------------------------------------------------
  free energy    TOTEN  =      -427.10236933 eV

  energy without entropy =     -427.10236933  energy(sigma->0) =     -427.10236933


--------------------------------------------------------------------------------------------------------




--------------------------------------- Iteration      1(  28)  ---------------------------------------


    POTLOK:  cpu time    4.2665: real time    4.2959
    SETDIJ:  cpu time    0.0538: real time    0.0540
    TRIAL :  cpu time    1.1538: real time    1.1641
    CORREC:  cpu time    4.7388: real time    4.7754
    EDDIAG:  cpu time    0.4335: real time    0.4391
    CHARGE:  cpu time    0.1775: real time    0.1798
[...]
      21 -86.0102      22 -86.0158      23 -86.0381      24 -86.0345      25 -86.0217
      26 -86.0241      27 -86.0183      28 -86.0355      29 -86.0177      30 -86.0215
      31 -86.0458      32 -86.0342      33 -86.0312      34 -86.0239      35 -86.0210
      36 -86.0249      37 -86.0267      38 -86.0301      39 -86.0301      40 -86.0270
      41 -86.0283      42 -86.0322      43 -86.0251      44 -86.0323      45 -86.0205
      46 -86.0187      47 -86.0281      48 -86.0243      49 -86.0289      50 -86.0271
      51 -89.8938      52-120.4026      53-120.4104
 
 
 
 E-fermi :  -4.3908     XC(G=0):  -2.1139     alpha+bet : -1.6890

 Fermi energy:        -4.3908070466

 k-point     1 :       0.0000    0.0000    0.0000
  band No.  band energies     occupation 
      1     -27.6410      2.00000
      2     -26.6502      2.00000
      3     -22.4590      2.00000
      4     -21.5380      2.00000
      5     -21.5270      2.00000
      6     -21.5200      2.00000
      7     -21.5191      2.00000
      8     -21.5163      2.00000
      9     -21.5123      2.00000
     10     -19.6959      2.00000
     11     -19.6913      2.00000
     12     -19.6839      2.00000
     13     -19.6830      2.00000
     14     -19.6808      2.00000
     15     -19.6804      2.00000
     16     -18.7986      2.00000
     17     -18.7949      2.00000
     18     -18.7914      2.00000
     19     -18.7897      2.00000
     20     -18.7878      2.00000
     21     -18.7872      2.00000
     22     -16.6384      2.00000
     23     -16.6361      2.00000
     24     -16.6315      2.00000
     25     -16.6304      2.00000
     26     -16.6262      2.00000
     27     -16.6253      2.00000
     28     -15.6663      2.00000
     29     -15.6643      2.00000
     30     -15.6594      2.00000
     31     -15.6591      2.00000
     32     -15.6568      2.00000
     33     -15.6562      2.00000
     34     -14.3160      2.00000
     35     -14.3145      2.00000
     36     -14.3130      2.00000
     37     -14.3111      2.00000
     38     -14.3105      2.00000
     39     -14.3100      2.00000
     40     -12.5272      2.00000
     41     -11.9446      2.00000
     42     -11.9430      2.00000
     43     -11.9383      2.00000
     44     -11.9375      2.00000
     45     -11.9375      2.00000
     46     -11.9360      2.00000
     47     -11.8580      2.00000
     48     -11.8551      2.00000
     49     -11.8532      2.00000
     50     -11.8528      2.00000
     51     -11.8485      2.00000
     52     -11.8482      2.00000
     53     -11.5012      2.00000
     54     -11.3896      2.00000
     55     -11.3179      2.00000
     56     -10.5748      2.00000
     57     -10.4862      2.00000
     58     -10.4860      2.00000
     59     -10.4843      2.00000
     60     -10.4841      2.00000
     61     -10.4830      2.00000
     62     -10.4818      2.00000
     63      -9.5214      2.00000
     64      -9.5207      2.00000
     65      -9.5186      2.00000
     66      -9.5156      2.00000
     67      -9.5128      2.00000
     68      -9.4061      2.00000
     69      -9.2298      2.00000
     70      -9.2259      2.00000
     71      -9.2248      2.00000
     72      -9.2241      2.00000
     73      -9.2231      2.00000
     74      -9.2211      2.00000
     75      -9.1635      2.00000
     76      -9.1624      2.00000
     77      -9.1616      2.00000
     78      -9.1592      2.00000
     79      -9.1588      2.00000
     80      -9.1568      2.00000
     81      -7.9189      2.00000
     82      -7.7979      2.00000
     83      -7.5813      2.00000
     84      -7.5800      2.00000
     85      -7.5787      2.00000
     86      -7.5755      2.00000
     87      -7.5742      2.00000
     88      -7.5738      2.00000
     89      -7.3982      2.00000
     90      -7.3875      2.00000
     91      -7.3837      2.00000
     92      -7.3732      2.00000
     93      -7.3654      2.00000
     94      -7.2438      2.00000
     95      -6.5001      2.00000
     96      -6.4970      2.00000
     97      -6.4876      2.00000
     98      -6.4866      2.00000
     99      -6.4764      2.00000
    100      -6.4225      2.00000
    101      -6.1033      2.00000
    102      -6.1009      2.00000
    103      -4.5206      2.00000
    104      -4.5138      2.00000
    105      -4.5072      2.00000
    106      -4.5026      2.00000
    107      -4.4998      2.00000
    108      -4.4985      2.00000
    109      -1.7374      0.00000
    110      -1.7300      0.00000
    111      -1.7130      0.00000
    112      -1.7097      0.00000
    113      -1.7070      0.00000
    114      -1.7007      0.00000
    115      -0.2169      0.00000
    116       0.0985      0.00000
    117       0.1209      0.00000
    118       0.1362      0.00000
    119       0.1454      0.00000
    120       0.1489      0.00000
    121       0.1534      0.00000
    122       0.5013      0.00000
    123       0.7405      0.00000
    124       0.9742      0.00000
    125       1.0712      0.00000
    126       1.1223      0.00000
    127       1.1660      0.00000
    128       1.1684      0.00000
    129       1.1772      0.00000
    130       1.2621      0.00000
    131       1.2887      0.00000
    132       1.7360      0.00000
    133       1.7663      0.00000
    134       1.9242      0.00000
    135       2.0137      0.00000
    136       2.0435      0.00000


--------------------------------------------------------------------------------------------------------


 soft charge-density along one line, spin component           1
         0         1         2         3         4         5         6         7         8         9
 total charge-density along one line
 
 pseudopotential strength for first ion, spin component:           1
 12.717  21.400  -0.000   0.000   0.000  -0.000   0.000   0.000
 21.400  36.011  -0.000   0.000   0.000  -0.000   0.000   0.000
 -0.000  -0.000  -3.220  -0.000   0.000  -5.772  -0.000   0.000
  0.000   0.000  -0.000  -3.224  -0.000  -0.000  -5.779  -0.000
  0.000   0.000   0.000  -0.000  -3.220   0.000  -0.000  -5.772
 -0.000  -0.000  -5.772  -0.000   0.000 -10.322  -0.000   0.000
  0.000   0.000  -0.000  -5.779  -0.000  -0.000 -10.335  -0.000
  0.000   0.000   0.000  -0.000  -5.772   0.000  -0.000 -10.322
 total augmentation occupancy for first ion, spin component:           1
  7.414  -2.549  -0.001  -0.002   0.000   0.000   0.001  -0.000
 -2.549   0.915   0.000   0.001  -0.000  -0.000  -0.000   0.000
 -0.001   0.000   6.888  -0.008   0.000  -2.287   0.003  -0.000
 -0.002   0.001  -0.008   2.991  -0.000   0.003  -0.762   0.000
  0.000  -0.000   0.000  -0.000   6.888  -0.000   0.000  -2.287
  0.000  -0.000  -2.287   0.003  -0.000   0.774  -0.001   0.000
  0.001  -0.000   0.003  -0.762   0.000  -0.001   0.201   0.000
 -0.000   0.000  -0.000   0.000  -2.287   0.000   0.000   0.774


------------------------ aborting loop because EDIFF is reached ----------------------------------------


    FORLOC:  cpu time    0.0687: real time    0.0694
    FORNL :  cpu time    0.8429: real time    0.8480
    FORCOR:  cpu time    4.3517: real time    4.3873
    OFIELD:  cpu time    0.0016: real time    0.0016

 VOLUME and BASIS-vectors are now :
 -----------------------------------------------------------------------------
  energy-cutoff  :     1000.00
  volume of cell :     3288.85
      direct lattice vectors                 reciprocal lattice vectors
    12.325000000  0.000000000  0.000000000     0.081135903  0.046843835  0.000000000
    -6.162500000 10.673763102  0.000000000     0.000000000  0.093687670  0.000000000
     0.000000000  0.000000000 25.000000000     0.000000000  0.000000000  0.040000000

  length of vectors
    12.325000000 12.325000000 25.000000000     0.093687670  0.093687670  0.040000000


 FORCES acting on ions:
    Electron-Ion                     Ewald-Force                    Non-Local-Force
 -----------------------------------------------------------------------------------------------
   0.130E+02 0.114E+02 0.248E+02   -.130E+02 -.114E+02 -.248E+02   0.144E-01 -.890E-02 0.163E-01
   0.221E+02 0.110E+02 0.335E+02   -.221E+02 -.110E+02 -.335E+02   0.219E-01 -.168E-01 -.303E-02
   0.114E+02 0.286E+02 0.429E+02   -.114E+02 -.287E+02 -.429E+02   -.710E-03 0.588E-01 0.537E-01
   0.192E+02 0.283E+02 0.743E+02   -.193E+02 -.283E+02 -.744E+02   0.846E-01 0.368E-01 0.103E+00
   0.142E+02 0.339E+01 0.249E+02   -.142E+02 -.337E+01 -.249E+02   0.161E-02 -.203E-01 -.288E-02
   0.150E+02 -.249E+01 0.255E+02   -.150E+02 0.250E+01 -.255E+02   -.291E-01 -.686E-02 -.106E-01
   0.319E+02 0.135E+02 0.622E+02   -.320E+02 -.134E+02 -.622E+02   0.622E-01 -.928E-01 -.448E-01
   0.320E+02 -.106E+02 0.675E+02   -.320E+02 0.106E+02 -.674E+02   -.201E-01 -.353E-01 -.222E+00
   -.124E+02 0.269E+02 0.448E+02   0.124E+02 -.268E+02 -.447E+02   -.250E-01 -.132E-01 -.543E-01
   -.241E+02 0.208E+02 0.732E+02   0.242E+02 -.208E+02 -.731E+02   -.745E-01 0.354E-01 -.232E+00
   0.344E+01 -.298E+01 0.196E+02   -.342E+01 0.296E+01 -.196E+02   -.836E-02 0.691E-02 -.574E-02
   0.270E+01 -.217E+01 0.182E+02   -.270E+01 0.218E+01 -.182E+02   -.173E-01 0.751E-02 0.145E-02
   0.119E+02 -.301E+02 0.788E+02   -.121E+02 0.302E+02 -.787E+02   0.119E+00 0.226E-02 -.254E+00
   0.518E+01 -.292E+02 0.439E+02   -.522E+01 0.291E+02 -.438E+02   0.325E-01 0.269E-02 -.460E-01
   -.128E+02 0.805E+01 0.244E+02   0.127E+02 -.804E+01 -.244E+02   0.198E-01 -.111E-01 -.463E-02
   -.194E+02 0.538E+01 0.293E+02   0.193E+02 -.538E+01 -.292E+02   0.390E-02 0.730E-02 -.232E-01
   -.183E+01 -.755E+00 0.174E+02   0.184E+01 0.752E+00 -.174E+02   -.382E-02 -.223E-02 0.150E-02
   0.104E+01 0.681E+01 0.187E+02   -.104E+01 -.681E+01 -.187E+02   -.996E-02 0.417E-02 0.839E-02
   -.405E+01 -.230E+02 0.317E+02   0.402E+01 0.230E+02 -.318E+02   0.376E-01 -.283E-02 0.212E-01
   -.163E+01 -.106E+02 0.208E+02   0.163E+01 0.106E+02 -.208E+02   0.421E-02 -.495E-02 -.116E-02
   0.234E+02 -.101E+02 0.369E+02   -.233E+02 0.101E+02 -.369E+02   -.140E-01 -.241E-02 -.507E-01
   0.134E+02 -.116E+02 0.277E+02   -.133E+02 0.116E+02 -.277E+02   -.176E-01 0.249E-01 -.111E-01
   -.589E+01 0.143E+02 0.101E+03   0.602E+01 -.144E+02 -.101E+03   -.131E+00 0.909E-01 -.597E-01
   -.116E+02 -.228E+02 0.934E+02   0.116E+02 0.229E+02 -.935E+02   0.889E-01 -.103E+00 -.164E-01
   0.596E+01 -.268E+01 0.198E+02   -.593E+01 0.267E+01 -.198E+02   -.157E-01 0.335E-02 -.954E-02
   0.106E+01 0.536E+01 0.200E+02   -.105E+01 -.536E+01 -.200E+02   -.143E-01 0.617E-02 -.165E-02
   -.313E+02 0.335E+01 0.506E+02   0.313E+02 -.341E+01 -.505E+02   0.475E-02 0.383E-01 -.715E-01
   -.279E+02 -.122E+02 0.442E+02   0.280E+02 0.122E+02 -.442E+02   -.476E-01 0.442E-01 0.272E-01
   0.816E+01 -.168E+02 0.292E+02   -.816E+01 0.168E+02 -.291E+02   0.785E-02 0.157E-01 -.163E-01
   0.758E+00 -.598E+01 0.212E+02   -.775E+00 0.597E+01 -.212E+02   0.509E-02 0.136E-01 -.920E-02
   -.234E+02 -.254E+02 0.565E+02   0.234E+02 0.255E+02 -.566E+02   -.639E-01 -.430E-01 0.937E-01
   -.125E+02 -.227E+02 0.343E+02   0.125E+02 0.227E+02 -.344E+02   -.189E-02 -.354E-01 0.324E-01
   0.675E+00 0.281E+01 0.180E+02   -.679E+00 -.281E+01 -.180E+02   0.121E-01 -.101E-01 0.344E-02
   0.197E+01 0.287E+01 0.196E+02   -.197E+01 -.285E+01 -.195E+02   0.100E-02 -.834E-02 -.619E-02
   -.884E+01 0.104E+01 0.217E+02   0.883E+01 -.105E+01 -.217E+02   0.139E-01 0.280E-02 -.235E-02
   -.753E+01 -.298E+01 0.210E+02   0.754E+01 0.298E+01 -.210E+02   -.118E-01 0.102E-01 -.360E-02
   -.156E+02 -.815E+01 0.256E+02   0.156E+02 0.814E+01 -.256E+02   -.180E-01 0.447E-02 0.178E-02
   -.875E+01 -.713E+01 0.206E+02   0.876E+01 0.712E+01 -.207E+02   -.116E-01 0.384E-02 0.105E-01
   -.828E+01 -.109E+02 0.224E+02   0.829E+01 0.109E+02 -.224E+02   -.122E-01 -.107E-01 0.724E-02
   -.121E+01 -.253E+01 0.186E+02   0.120E+01 0.254E+01 -.186E+02   0.663E-03 -.199E-02 0.778E-02
   0.310E+01 0.737E+01 0.196E+02   -.310E+01 -.738E+01 -.196E+02   -.314E-02 0.116E-01 0.755E-02
   0.106E+02 0.165E+02 0.267E+02   -.106E+02 -.165E+02 -.267E+02   0.143E-01 0.170E-01 0.170E-01
   0.831E+00 0.133E+02 0.222E+02   -.821E+00 -.134E+02 -.222E+02   -.864E-02 0.100E-01 -.757E-03
   0.301E+00 0.264E+02 0.359E+02   -.264E+00 -.264E+02 -.359E+02   -.464E-01 0.121E-01 0.231E-01
   -.254E+01 0.508E+01 0.212E+02   0.254E+01 -.507E+01 -.212E+02   0.109E-02 -.993E-02 -.677E-02
   -.110E+02 0.141E+02 0.277E+02   0.110E+02 -.141E+02 -.277E+02   -.435E-02 -.464E-02 -.170E-01
   -.176E+01 -.500E+01 0.194E+02   0.175E+01 0.500E+01 -.194E+02   0.162E-01 0.486E-04 0.650E-03
   -.468E+01 0.193E+01 0.185E+02   0.466E+01 -.192E+01 -.185E+02   0.120E-01 -.178E-02 -.820E-02
   0.346E+00 -.310E+01 0.182E+02   -.344E+00 0.309E+01 -.182E+02   0.811E-02 -.294E-02 0.513E-02
   0.490E+01 0.361E+01 0.185E+02   -.490E+01 -.361E+01 -.185E+02   0.374E-02 0.547E-02 0.370E-02
   0.297E+00 -.175E+00 -.425E+03   -.279E+00 0.160E+00 0.426E+03   -.269E-01 0.126E-01 -.611E-01
   -.229E+03 0.155E+03 -.652E+03   0.279E+03 -.190E+03 0.655E+03   -.508E+02 0.346E+02 -.276E+01
   0.229E+03 -.156E+03 -.629E+03   -.279E+03 0.190E+03 0.626E+03   0.508E+02 -.347E+02 0.368E+01
 -----------------------------------------------------------------------------------------------
   0.592E-01 0.333E-02 -.117E+00   0.568E-13 -.142E-12 0.568E-12   -.593E-01 -.347E-02 0.115E+00
 
 
 POSITION                                       TOTAL-FORCE (eV/Angst)
 -----------------------------------------------------------------------------------
     11.98348      0.00342      0.01417         0.000632     -0.002080      0.000381
     -0.34154      1.42665      0.01100         0.009415      0.007439      0.002253
      2.12355      0.00315      0.01249         0.005232     -0.013992      0.010527
      2.12326      1.42653      0.00641        -0.006158      0.009653     -0.025783
     10.75099      2.13819      0.01213        -0.000664     -0.003654      0.003636
     -1.57382      3.56123      0.01110        -0.006220      0.008055      0.002692
      0.89078      2.13854      0.00548        -0.015137      0.011556     -0.028023
      0.89099      3.56147      0.00181        -0.012927      0.019802     -0.080761
      4.58864      0.00346      0.01135         0.010450      0.033422     -0.006259
      4.58894      1.42623      0.00646         0.019426     -0.016795     -0.106994
      9.51854      4.27281      0.01369         0.008433     -0.012500      0.000348
     -2.80632      5.69591      0.01434        -0.013237      0.007744      0.000957
      2.12300      4.27302      0.00000        -0.018869      0.038971     -0.135575
      2.12335      5.69594      0.00581        -0.006476     -0.041625     -0.004905
      7.05344      0.00333      0.01399         0.004123     -0.001306      0.003799
      7.05353      1.42635      0.01368        -0.006863      0.006424      0.002121
      8.28610      6.40752      0.01601         0.004974     -0.005192     -0.000298
     -4.03885      7.83070      0.01636        -0.006443      0.006630      0.000037
      3.35586      6.40753      0.01007         0.008406      0.003585      0.005794
      3.35599      7.83072      0.01320        -0.002983     -0.003810      0.000553
     -0.34146      4.27290      0.00723         0.027115     -0.017254     -0.000531
     -0.34138      5.69591      0.00946        -0.007104      0.005214      0.006457
      3.35624      2.13791      0.00222         0.006549     -0.011800     -0.197974
      3.35573      3.56155      0.00139         0.003102      0.021068     -0.135646
     -1.57395      6.40758      0.01311         0.014310     -0.002182     -0.000777
     -1.57385      7.83068      0.01438        -0.005051      0.004052      0.000226
      5.82093      2.13784      0.01033        -0.019432     -0.022052     -0.015462
      5.82114      3.56097      0.01156        -0.000029     -0.000494      0.008242
      0.89092      6.40755      0.00907         0.001577      0.000173      0.005842
      0.89106      7.83068      0.01235        -0.011334     -0.002948      0.000431
      4.58871      4.27293      0.00850         0.000348     -0.012374      0.006835
      4.58852      5.69606      0.01149        -0.000484      0.015461      0.005167
      9.51845      0.00337      0.01490         0.008306     -0.007912      0.000307
      9.51855      1.42644      0.01438        -0.004383      0.013437     -0.000372
      8.28593      2.13803      0.01453         0.002530     -0.008004      0.001608
      8.28613      3.56115      0.01464        -0.004517      0.002091      0.000542
      7.05356      4.27269      0.01457         0.000585     -0.001824      0.002092
      7.05362      5.69588      0.01553        -0.003186      0.001657     -0.000092
      5.82112      6.40755      0.01489        -0.000875     -0.001190     -0.000316
      5.82102      7.83073      0.01579        -0.004177      0.004729     -0.000303
      7.05363      8.54227      0.01631         0.002080     -0.003234      0.000991
     -5.27149      9.96549      0.01495        -0.001372     -0.000907     -0.000989
     -2.80638      8.54234      0.01558         0.002061      0.001545      0.000229
     -2.80627      9.96553      0.01362        -0.008800     -0.001357      0.007077
     -0.34149      8.54239      0.01378         0.007076      0.000133      0.000851
     -0.34138      9.96550      0.01354        -0.007833      0.003657      0.004281
      2.12343      8.54232      0.01336         0.007725     -0.000188      0.000720
      2.12354      9.96544      0.01469        -0.009076      0.002645     -0.002042
      4.58846      8.54235      0.01505         0.010568     -0.007779      0.001180
      4.58853      9.96550      0.01517        -0.002282      0.006555      0.000885
      3.04930      2.68154      2.80616        -0.008142     -0.002725      0.113248
      4.02070      2.02068      2.87058        -0.528669      0.386858      0.208625
      2.07767      3.34267      2.74670         0.557704     -0.417379      0.334165
 -----------------------------------------------------------------------------------
    total drift:                               -0.000085     -0.000143     -0.002216


--------------------------------------------------------------------------------------------------------



  FREE ENERGIE OF THE ION-ELECTRON SYSTEM (eV)
  ---------------------------------------------------
  free  energy   TOTEN  =      -427.10236938 eV

  energy  without entropy=     -427.10236938  energy(sigma->0) =     -427.10236938
 


--------------------------------------------------------------------------------------------------------


    POTLOK:  cpu time    4.3565: real time    4.3881


--------------------------------------------------------------------------------------------------------


 writing wavefunctions
     LOOP+:  cpu time  298.1193: real time  300.8926
    4ORBIT:  cpu time    0.0000: real time    0.0000

 total amount of memory used by VASP MPI-rank0   100580. kBytes
=======================================================================

   base      :      30000. kBytes
   nonl-proj :       8229. kBytes
   fftplans  :      18352. kBytes
   grid      :      30208. kBytes
   one-center:          6. kBytes
   wavefun   :      13785. kBytes
 
  
  
 General timing and accounting informations for this job:
 ========================================================
  
                  Total CPU time used (sec):      341.747
                            User time (sec):      318.606
                          System time (sec):       23.141
                         Elapsed time (sec):      345.853
  
                   Maximum memory used (kb):      782140.
                   Average memory used (kb):          N/A
  
                          Minor page faults:       456301
                          Major page faults:          114
                 Voluntary context switches:         3822
