 vasp.6.2.1 16May21 (build Nov 06 2021 14:46:37) complex                        
  
 executed on             LinuxIFC date 2025.04.16  18:56:23
 running on  112 total cores
 distrk:  each k-point on  112 cores,    1 groups
 distr:  one band on NCORE=  28 cores,    4 groups


--------------------------------------------------------------------------------------------------------


 INCAR:
   ALGO = Conjugate
   NPAR = 4
   ISMEAR = 0
   SIGMA = 0.01
   PREC = Accurate
   EDIFF = 1E-7
   ENCUT = 1000
   ISIF = 0
   GGA = MK
   LUSE_VDW = .TRUE.
   PARAM1 = 0.1234
   PARAM2 = 0.711357
   ZAB_VDW = -1.8867
   AGGAC = 0.0000
   LASPH = .TRUE.

 POTCAR:    PAW_PBE C_h 06Feb2004                 
 POTCAR:    PAW_PBE O_h 06Feb2004                 
 -----------------------------------------------------------------------------
|                                                                             |
|           W    W    AA    RRRRR   N    N  II  N    N   GGGG   !!!           |
|           W    W   A  A   R    R  NN   N  II  NN   N  G    G  !!!           |
|           W    W  A    A  R    R  N N  N  II  N N  N  G       !!!           |
|           W WW W  AAAAAA  RRRRR   N  N N  II  N  N N  G  GGG   !            |
|           WW  WW  A    A  R   R   N   NN  II  N   NN  G    G                |
|           W    W  A    A  R    R  N    N  II  N    N   GGGG   !!!           |
|                                                                             |
|     For optimal performance we recommend to set                             |
|       NCORE = 2 up to number-of-cores-per-socket                            |
|     NCORE specifies how many cores store one orbital (NPAR=cpu/NCORE).      |
|     This setting can greatly improve the performance of VASP for DFT.       |
|     The default, NCORE=1 might be grossly inefficient on modern             |
|     multi-core architectures or massively parallel machines. Do your        |
|     own testing! More info at https://www.vasp.at/wiki/index.php/NCORE      |
|     Unfortunately you need to use the default for GW and RPA                |
|     calculations (for HF NCORE is supported but not extensively tested      |
|     yet).                                                                   |
|                                                                             |
 -----------------------------------------------------------------------------

 -----------------------------------------------------------------------------
|                                                                             |
|               ----> ADVICE to this user running VASP <----                  |
|                                                                             |
|     You have switched on vdW-DFT.                                           |
|     This routine was written and supplied by Jiri Klimes. We recommend      |
|     that you carefully read and cite the following publications:            |
|       J. Klimes, D.R. Bowler, A. Michelides                                 |
|          J. Phys.: Cond Matt. 22 022201 (2010)                              |
|       J. Klimes, D.R. Bowler, A. Michelides                                 |
|          Phys. Rev. B. 83, 195131 (2011)                                    |
|     and references therein.                                                 |
|                                                                             |
 -----------------------------------------------------------------------------

 POTCAR:    PAW_PBE C_h 06Feb2004                 
   VRHFIN =C: s2p2                                                                                  
   LEXCH  = PE                                                                                      
   EATOM  =   147.1560 eV,   10.8157 Ry                                                             
                                                                                                    
   TITEL  = PAW_PBE C_h 06Feb2004                                                                   
   LULTRA =        F    use ultrasoft PP ?                                                          
   IUNSCR =        1    unscreen: 0-lin 1-nonlin 2-no                                               
   RPACOR =    0.800    partial core radius                                                         
   POMASS =   12.011; ZVAL   =    4.000    mass and valenz                                          
   RCORE  =    1.100    outmost cutoff radius                                                       
   RWIGS  =    1.630; RWIGS  =    0.863    wigner-seitz radius (au A)                               
   ENMAX  =  700.000; ENMIN  =  500.000 eV                                                          
   ICORE  =        2    local potential                                                             
   LCOR   =        T    correct aug charges                                                         
   LPAW   =        T    paw PP                                                                      
   EAUG   =  946.768                                                                                
   DEXC   =    0.000                                                                                
   RMAX   =    1.128    core radius for proj-oper                                                   
   RAUG   =    1.300    factor for augmentation sphere                                              
   RDEP   =    1.162    radius for radial grids                                                     
   RDEPT  =    1.088    core radius for aug-charge                                                  
                                                                                                    
   Atomic configuration                                                                             
    4 entries                                                                                       
     n  l   j            E        occ.                                                              
     1  0  0.50      -273.3789   2.0000                                                             
     2  0  0.50       -13.7508   2.0000                                                             
     2  1  0.50        -5.2854   2.0000                                                             
     3  2  1.50        -5.4423   0.0000                                                             
   Description                                                                                      
     l       E           TYP  RCUT    TYP  RCUT                                                     
     0    -13.7508458     23  1.100                                                                 
     0     -8.2022199     23  1.100                                                                 
     1     -5.2854383     23  1.100                                                                 
     1      1.1560700     23  1.100                                                                 
     2     -5.4423304      7  1.100                                                                 
  local pseudopotential read in
  partial core-charges read in
  partial kinetic energy density read in
  atomic valenz-charges read in
  non local Contribution for L=           0  read in
    real space projection operators read in
  non local Contribution for L=           0  read in
    real space projection operators read in
  non local Contribution for L=           1  read in
    real space projection operators read in
  non local Contribution for L=           1  read in
    real space projection operators read in
    PAW grid and wavefunctions read in
 
   number of l-projection  operators is LMAX  =           4
   number of lm-projection operators is LMMAX =           8
 
 POTCAR:    PAW_PBE O_h 06Feb2004                 
   VRHFIN =O: s2p4                                                                                  
   LEXCH  = PE                                                                                      
   EATOM  =   432.3788 eV,   31.7789 Ry                                                             
                                                                                                    
   TITEL  = PAW_PBE O_h 06Feb2004                                                                   
   LULTRA =        F    use ultrasoft PP ?                                                          
   IUNSCR =        1    unscreen: 0-lin 1-nonlin 2-no                                               
   RPACOR =    0.800    partial core radius                                                         
   POMASS =   16.000; ZVAL   =    6.000    mass and valenz                                          
   RCORE  =    1.100    outmost cutoff radius                                                       
   RWIGS  =    1.400; RWIGS  =    0.741    wigner-seitz radius (au A)                               
   ENMAX  =  700.000; ENMIN  =  500.000 eV                                                          
   ICORE  =        2    local potential                                                             
   LCOR   =        T    correct aug charges                                                         
   LPAW   =        T    paw PP                                                                      
   EAUG   =  888.804                                                                                
   DEXC   =    0.000                                                                                
   RMAX   =    1.128    core radius for proj-oper                                                   
   RAUG   =    1.300    factor for augmentation sphere                                              
   RDEP   =    1.125    radius for radial grids                                                     
   RDEPT  =    1.088    core radius for aug-charge                                                  
                                                                                                    
   Atomic configuration                                                                             
    4 entries                                                                                       
     n  l   j            E        occ.                                                              
     1  0  0.50      -514.6923   2.0000                                                             
     2  0  0.50       -23.9615   2.0000                                                             
     2  1  0.50        -9.0305   4.0000                                                             
     3  2  1.50        -9.5241   0.0000                                                             
   Description                                                                                      
     l       E           TYP  RCUT    TYP  RCUT                                                     
     0    -23.9615319     23  1.100                                                                 
     0    -25.3221145     23  1.100                                                                 
     1     -9.0304911     23  1.100                                                                 
     1     -5.4802209     23  1.100                                                                 
     2     -9.5240782      7  1.100                                                                 
  local pseudopotential read in
  partial core-charges read in
  partial kinetic energy density read in
  atomic valenz-charges read in
  non local Contribution for L=           0  read in
    real space projection operators read in
  non local Contribution for L=           0  read in
    real space projection operators read in
  non local Contribution for L=           1  read in
    real space projection operators read in
  non local Contribution for L=           1  read in
    real space projection operators read in
    PAW grid and wavefunctions read in
 
   number of l-projection  operators is LMAX  =           4
   number of lm-projection operators is LMMAX =           8
 
 -----------------------------------------------------------------------------
|                                                                             |
|               ----> ADVICE to this user running VASP <----                  |
|                                                                             |
|     You have a (more or less) 'large supercell' and for larger cells it     |
|     might be more efficient to use real-space projection operators.         |
|     Therefore, try LREAL= Auto in the INCAR file.                           |
|     Mind: For very accurate calculation, you might also keep the            |
|     reciprocal projection scheme (i.e. LREAL=.FALSE.).                      |
|                                                                             |
 -----------------------------------------------------------------------------

 -----------------------------------------------------------------------------
|                                                                             |
|               ----> ADVICE to this user running VASP <----                  |
|                                                                             |
|     You enforced a specific xc type in the INCAR file but a different       |
|     type was found in the POTCAR file.                                      |
|     I HOPE YOU KNOW WHAT YOU ARE DOING!                                     |
|                                                                             |
 -----------------------------------------------------------------------------

  PAW_PBE C_h 06Feb2004                 :
 energy of atom  1       EATOM= -147.1560
 kinetic energy error for atom=    0.0031 (will be added to EATOM!!)
  PAW_PBE O_h 06Feb2004                 :
 energy of atom  2       EATOM= -432.3788
 kinetic energy error for atom=    0.0171 (will be added to EATOM!!)
 
 
 POSCAR:  C  O
  positions in cartesian coordinates
  No initial velocities read in
 exchange correlation table for  LEXCH =       43
   RHO(1)=    0.500       N(1)  =     2000
   RHO(2)=  100.500       N(2)  =     4000
 


--------------------------------------------------------------------------------------------------------


 ion  position               nearest neighbor table
   1  0.972  0.000  0.001-  50 1.42   2 1.42  42 1.42
   2  0.039  0.134  0.000-   5 1.42   7 1.42   1 1.42
   3  0.172  0.000  0.000-  42 1.42  44 1.42   4 1.42
   4  0.239  0.134  0.000-   7 1.42   3 1.42  23 1.42
   5  0.972  0.200  0.000-   6 1.42   2 1.42  34 1.42
   6  0.039  0.334  0.000-   5 1.42  21 1.42  11 1.42
   7  0.172  0.200  0.000-   8 1.42   2 1.42   4 1.42
   8  0.239  0.334  0.000-  13 1.42   7 1.42  21 1.42
   9  0.372  0.000  0.000-  10 1.42  44 1.42  46 1.42
  10  0.439  0.134  0.000-  27 1.42   9 1.42  23 1.42
  11  0.972  0.400  0.001-  12 1.42  36 1.42   6 1.42
  12  0.039  0.534  0.001-  25 1.42  11 1.42  17 1.42
  13  0.372  0.400  0.000-   8 1.42  14 1.42  24 1.42
  14  0.439  0.534  0.000-  13 1.42  29 1.42  19 1.42
  15  0.572  0.000  0.001-  46 1.42  16 1.42  48 1.42
  16  0.639  0.134  0.001-  15 1.42  35 1.42  27 1.42
  17  0.972  0.600  0.001-  38 1.42  18 1.42  12 1.42
  18  0.039  0.734  0.001-  43 1.42  41 1.42  17 1.42
  19  0.572  0.600  0.000-  14 1.42  20 1.42  32 1.42
  20  0.639  0.734  0.001-  49 1.42  19 1.42  47 1.42
  21  0.172  0.400  0.000-  22 1.42   8 1.42   6 1.42
  22  0.239  0.534  0.000-  21 1.42  29 1.42  25 1.42
  23  0.372  0.200  0.000-  10 1.42   4 1.42  24 1.42
  24  0.439  0.334  0.000-  13 1.42  31 1.42  23 1.42
  25  0.172  0.600  0.001-  26 1.42  12 1.42  22 1.42
  26  0.239  0.734  0.001-  25 1.42  45 1.42  43 1.42
  27  0.572  0.200  0.000-  10 1.42  28 1.42  16 1.42
  28  0.639  0.334  0.000-  27 1.42  37 1.42  31 1.42
  29  0.372  0.600  0.000-  22 1.42  14 1.42  30 1.42
  30  0.439  0.734  0.000-  47 1.42  29 1.42  45 1.42
  31  0.572  0.400  0.000-  32 1.42  28 1.42  24 1.42
  32  0.639  0.534  0.000-  31 1.42  39 1.42  19 1.42
  33  0.772  0.000  0.001-  34 1.42  48 1.42  50 1.42
  34  0.839  0.134  0.001-  33 1.42   5 1.42  35 1.42
  35  0.772  0.200  0.001-  36 1.42  16 1.42  34 1.42
  36  0.839  0.334  0.001-  35 1.42  11 1.42  37 1.42
  37  0.772  0.400  0.001-  28 1.42  38 1.42  36 1.42
  38  0.839  0.534  0.001-  17 1.42  37 1.42  39 1.42
  39  0.772  0.600  0.001-  40 1.42  38 1.42  32 1.42
  40  0.839  0.734  0.001-  39 1.42  49 1.42  41 1.42
  41  0.972  0.800  0.001-  18 1.42  42 1.42  40 1.42
  42  0.039  0.934  0.001-   3 1.42  41 1.42   1 1.42
  43  0.172  0.800  0.001-  18 1.42  44 1.42  26 1.42
  44  0.239  0.934  0.001-   9 1.42  43 1.42   3 1.42
  45  0.372  0.800  0.001-  26 1.42  46 1.42  30 1.42
  46  0.439  0.934  0.001-  15 1.42  45 1.42   9 1.42
  47  0.572  0.800  0.001-  30 1.42  48 1.42  20 1.42
  48  0.639  0.934  0.001-  47 1.42  33 1.42  15 1.42
  49  0.772  0.800  0.001-  50 1.42  20 1.42  40 1.42
  50  0.839  0.934  0.001-  49 1.42   1 1.42  33 1.42
  51  0.373  0.251  0.212-  52 1.18  53 1.18
  52  0.421  0.189  0.214-  51 1.18
  53  0.325  0.313  0.210-  51 1.18
 
  LATTYP: Found a hexagonal cell.
 ALAT       =    12.3250000000
 C/A-ratio  =     2.0283975659
  
  Lattice vectors:
  
 A1 = (  12.3250000000,   0.0000000000,   0.0000000000)
 A2 = (  -6.1625000000,  10.6737631016,   0.0000000000)
 A3 = (   0.0000000000,   0.0000000000,  25.0000000000)


Analysis of symmetry for initial positions (statically):
=====================================================================
 Subroutine PRICEL returns:
 Original cell was already a primitive cell.
 

 Routine SETGRP: Setting up the symmetry group for a 
 hexagonal supercell.


 Subroutine GETGRP returns: Found  1 space group operations
 (whereof  1 operations were pure point group operations)
 out of a pool of 24 trial point group operations.


The static configuration has the point symmetry C_1 .


Analysis of symmetry for dynamics (positions and initial velocities):
=====================================================================
 Subroutine PRICEL returns:
 Original cell was already a primitive cell.
 

 Routine SETGRP: Setting up the symmetry group for a 
 hexagonal supercell.


 Subroutine GETGRP returns: Found  1 space group operations
 (whereof  1 operations were pure point group operations)
 out of a pool of 24 trial point group operations.


The dynamic configuration has the point symmetry C_1 .


 Subroutine INISYM returns: Found  1 space group operations
 (whereof  1 operations are pure point group operations),
 and found     1 'primitive' translations


----------------------------------------------------------------------------------------

                                     Primitive cell                                     

  volume of cell :    3288.8533

  direct lattice vectors                    reciprocal lattice vectors
    12.325000000  0.000000000  0.000000000     0.081135903  0.046843835  0.000000000
    -6.162500000 10.673763102  0.000000000     0.000000000  0.093687670  0.000000000
     0.000000000  0.000000000 25.000000000     0.000000000  0.000000000  0.040000000

  length of vectors
    12.325000000 12.325000000 25.000000000     0.093687670  0.093687670  0.040000000

  position of ions in fractional coordinates (direct lattice)
     0.972450841  0.000320818  0.000566711
     0.039118382  0.133659505  0.000440173
     0.172443627  0.000295449  0.000499628
     0.239096278  0.133647917  0.000256468
     0.972452058  0.200322012  0.000485219
     0.039128360  0.333643771  0.000444150
     0.172451764  0.200354552  0.000219167
     0.239124359  0.333665720  0.000072260
     0.372465565  0.000324403  0.000453913
     0.439137473  0.133619939  0.000258338
     0.972449824  0.400309362  0.000547611
     0.039124981  0.533636789  0.000573410
     0.372416176  0.400329481  0.000000000
     0.439099602  0.533638981  0.000232414
     0.572443676  0.000312125  0.000559580
     0.639110207  0.133631751  0.000547275
     0.972452703  0.600305653  0.000640289
     0.039124495  0.733640359  0.000654513
     0.572433471  0.600306242  0.000402895
     0.639111888  0.733641879  0.000527905
     0.172454630  0.400318228  0.000289045
     0.239120185  0.533636548  0.000378509
     0.372459750  0.200295993  0.000088997
     0.439107096  0.333673419  0.000055762
     0.172452155  0.600311506  0.000524340
     0.239123371  0.733638574  0.000575129
     0.572431082  0.200289171  0.000413296
     0.639112773  0.333618630  0.000462376
     0.372439808  0.600308022  0.000362844
     0.439116090  0.733637858  0.000494190
     0.572469358  0.400320504  0.000339918
     0.639119408  0.533650873  0.000459610
     0.772445723  0.000315427  0.000596161
     0.839116277  0.133640203  0.000575306
     0.772440513  0.200307432  0.000581033
     0.839120241  0.333635728  0.000585467
     0.772446320  0.400298367  0.000582978
     0.839118980  0.533633964  0.000621100
     0.772456143  0.600308173  0.000595712
     0.839115033  0.733643180  0.000631512
     0.972455313  0.800305582  0.000652233
     0.039114714  0.933643289  0.000598051
     0.172457971  0.800312211  0.000623372
     0.239134551  0.933647193  0.000544850
     0.372451396  0.800316674  0.000551399
     0.439124489  0.933644769  0.000541430
     0.572441101  0.800310054  0.000534535
     0.639115067  0.933638985  0.000587644
     0.772445098  0.800313187  0.000602062
     0.839116614  0.933644338  0.000606830
     0.373021009  0.251226878  0.211892619
     0.420879805  0.189313152  0.214469493
     0.325156981  0.313167186  0.209514424

  ion indices of the primitive-cell ions
   primitive index   ion index
                 1           1
                 2           2
                 3           3
                 4           4
                 5           5
                 6           6
                 7           7
                 8           8
                 9           9
                10          10
                11          11
                12          12
                13          13
                14          14
                15          15
                16          16
                17          17
                18          18
                19          19
                20          20
                21          21
                22          22
                23          23
                24          24
                25          25
                26          26
                27          27
                28          28
                29          29
                30          30
                31          31
                32          32
                33          33
                34          34
                35          35
                36          36
                37          37
                38          38
                39          39
                40          40
                41          41
                42          42
                43          43
                44          44
                45          45
                46          46
                47          47
                48          48
                49          49
                50          50
                51          51
                52          52
                53          53

----------------------------------------------------------------------------------------

 
 
 KPOINTS: auto                                    

Automatic generation of k-mesh.
 Grid dimensions read from file:
 generate k-points for:    1    1    1

 Generating k-lattice:

  Cartesian coordinates                     Fractional coordinates (reciprocal lattice)
     0.081135903  0.046843835  0.000000000     1.000000000 -0.000000000  0.000000000
     0.000000000  0.093687670  0.000000000     0.000000000  1.000000000  0.000000000
     0.000000000  0.000000000  0.040000000     0.000000000  0.000000000  1.000000000

  Length of vectors
     0.093687670  0.093687670  0.040000000

  Shift w.r.t. Gamma in fractional coordinates (k-lattice)
     0.000000000  0.000000000  0.000000000

 
 Subroutine IBZKPT returns following result:
 ===========================================
 
 Found      1 irreducible k-points:
 
 Following reciprocal coordinates:
            Coordinates               Weight
  0.000000  0.000000  0.000000      1.000000
 
 Following cartesian coordinates:
            Coordinates               Weight
  0.000000  0.000000  0.000000      1.000000
 


--------------------------------------------------------------------------------------------------------




 Dimension of arrays:
   k-points           NKPTS =      1   k-points in BZ     NKDIM =      1   number of bands    NBANDS=    136
   number of dos      NEDOS =    301   number of ions     NIONS =     53
   non local maximal  LDIM  =      4   non local SUM 2l+1 LMDIM =      8
   total plane-waves  NPLWV = ******
   max r-space proj   IRMAX =      1   max aug-charges    IRDMAX=  10008
   dimension x,y,z NGX =   128 NGY =  128 NGZ =  270
   dimension x,y,z NGXF=   256 NGYF=  256 NGZF=  540
   support grid    NGXF=   256 NGYF=  256 NGZF=  540
   ions per type =              51   2
   NGX,Y,Z   is equivalent  to a cutoff of  17.27, 17.27, 17.95 a.u.
   NGXF,Y,Z  is equivalent  to a cutoff of  34.53, 34.53, 35.91 a.u.

 SYSTEM =  unknown system                          
 POSCAR =   C  O                                   

 Startparameter for this run:
   NWRITE =      2    write-flag & timer
   PREC   = accura    normal or accurate (medium, high low for compatibility)
   ISTART =      0    job   : 0-new  1-cont  2-samecut
   ICHARG =      2    charge: 1-file 2-atom 10-const
   ISPIN  =      1    spin polarized calculation?
   LNONCOLLINEAR =      F non collinear calculations
   LSORBIT =      F    spin-orbit coupling
   INIWAV =      1    electr: 0-lowe 1-rand  2-diag
   LASPH  =      T    aspherical Exc in radial PAW
 Electronic Relaxation 1
   ENCUT  = 1000.0 eV  73.50 Ry    8.57 a.u.  31.78 31.78 64.46*2*pi/ulx,y,z
   ENINI  = 1000.0     initial cutoff
   ENAUG  =  946.8 eV  augmentation charge cutoff
   NELM   =     60;   NELMIN=  2; NELMDL= -5     # of ELM steps 
   EDIFF  = 0.1E-06   stopping-criterion for ELM
   LREAL  =      F    real-space projection
   NLSPLINE    = F    spline interpolate recip. space projectors
   LCOMPAT=      F    compatible to vasp.4.4
   GGA_COMPAT  = T    GGA compatible to vasp.4.4-vasp.4.6
   LMAXPAW     = -100 max onsite density
   LMAXMIX     =    2 max onsite mixed and CHGCAR
   VOSKOWN=      0    Vosko Wilk Nusair interpolation
   ROPT   =    0.00000   0.00000
 Ionic relaxation
   EDIFFG = 0.1E-05   stopping-criterion for IOM
   NSW    =      0    number of steps for IOM
   NBLOCK =      1;   KBLOCK =      1    inner block; outer block 
   IBRION =     -1    ionic relax: 0-MD 1-quasi-New 2-CG
   NFREE  =      0    steps in history (QN), initial steepest desc. (CG)
   ISIF   =      0    stress and relaxation
   IWAVPR =     10    prediction:  0-non 1-charg 2-wave 3-comb
   ISYM   =      2    0-nonsym 1-usesym 2-fastsym
   LCORR  =      T    Harris-Foulkes like correction to forces

   POTIM  = 0.5000    time-step for ionic-motion
   TEIN   =    0.0    initial temperature
   TEBEG  =    0.0;   TEEND  =   0.0 temperature during run
   SMASS  =  -3.00    Nose mass-parameter (am)
   estimated Nose-frequenzy (Omega)   =  0.10E-29 period in steps = 0.13E+47 mass=  -0.347E-26a.u.
   SCALEE = 1.0000    scale energy and forces
   NPACO  =    256;   APACO  = 16.0  distance and # of slots for P.C.
   PSTRESS=    0.0 pullay stress

  Mass of Ions in am
   POMASS =  12.01 16.00
  Ionic Valenz
   ZVAL   =   4.00  6.00
  Atomic Wigner-Seitz radii
   RWIGS  =  -1.00 -1.00
  virtual crystal weights 
   VCA    =   1.00  1.00
   NELECT =     216.0000    total number of electrons
   NUPDOWN=      -1.0000    fix difference up-down

 DOS related values:
   EMIN   =  10.00;   EMAX   =-10.00  energy-range for DOS
   EFERMI =   0.00
   ISMEAR =     0;   SIGMA  =   0.01  broadening in eV -4-tet -1-fermi 0-gaus

 Electronic relaxation 2 (details)
   IALGO  =     58    algorithm
   LDIAG  =      T    sub-space diagonalisation (order eigenvalues)
   LSUBROT=      F    optimize rotation matrix (better conditioning)
   TURBO    =      0    0=normal 1=particle mesh
   IRESTART =      0    0=no restart 2=restart with 2 vectors
   NREBOOT  =      0    no. of reboots
   NMIN     =      0    reboot dimension
   EREF     =   0.00    reference energy to select bands
   IMIX   =      4    mixing-type and parameters
     AMIX     =   0.40;   BMIX     =  1.00
     AMIX_MAG =   1.60;   BMIX_MAG =  1.00
     AMIN     =   0.10
     WC   =   100.;   INIMIX=   1;  MIXPRE=   1;  MAXMIX= -45

 Intra band minimization:
   WEIMIN = 0.0000     energy-eigenvalue tresh-hold
   EBREAK =  0.18E-09  absolut break condition
   DEPER  =   0.30     relativ break condition  

   TIME   =   0.40     timestep for ELM

  volume/ion in A,a.u.               =      62.05       418.76
  Fermi-wavevector in a.u.,A,eV,Ry     =   0.660508  1.248179  5.935820  0.436270
  Thomas-Fermi vector in A             =   1.732977
 
 Write flags
   LWAVE        =      T    write WAVECAR
   LDOWNSAMPLE  =      F    k-point downsampling of WAVECAR
   LCHARG       =      T    write CHGCAR
   LVTOT        =      F    write LOCPOT, total local potential
   LVHAR        =      F    write LOCPOT, Hartree potential only
   LELF         =      F    write electronic localiz. function (ELF)
   LORBIT       =      0    0 simple, 1 ext, 2 COOP (PROOUT), +10 PAW based schemes


 Dipole corrections
   LMONO  =      F    monopole corrections only (constant potential shift)
   LDIPOL =      F    correct potential (dipole corrections)
   IDIPOL =      0    1-x, 2-y, 3-z, 4-all directions 
   EPSILON=  1.0000000 bulk dielectric constant

 Exchange correlation treatment:
   GGA     =    MK    GGA type
   LEXCH   =    43    internal setting for exchange type
   VOSKOWN=      0    Vosko Wilk Nusair interpolation
   LHFCALC =     F    Hartree Fock is set to
   LHFONE  =     F    Hartree Fock one center treatment
   AEXX    =    0.0000 exact exchange contribution

 vdW DFT:
   LUSE_VDW   =     T    switch on vdW DFT
   Zab_VDW    =******    correlation parameter
   PARAM1     =0.1234
   PARAM2     =0.7114
   PARAM3     =0.0000
   -- rVV10 --
   BPARAM     = 6.3000
   CPARAM     = 0.0093

 Linear response parameters
   LEPSILON=     F    determine dielectric tensor
   LRPA    =     F    only Hartree local field effects (RPA)
   LNABLA  =     F    use nabla operator in PAW spheres
   LVEL    =     F    velocity operator in full k-point grid
   LINTERFAST=   F  fast interpolation
   KINTER  =     0    interpolate to denser k-point grid
   CSHIFT  =0.1000    complex shift for real part using Kramers Kronig
   OMEGAMAX=  -1.0    maximum frequency
   DEG_THRESHOLD= 0.2000000E-02 threshold for treating states as degnerate
   RTIME   =   -0.100 relaxation time in fs
  (WPLASMAI=    0.000 imaginary part of plasma frequency in eV, 0.658/RTIME)
   DFIELD  = 0.0000000 0.0000000 0.0000000 field for delta impulse in time
 
 Orbital magnetization related:
   ORBITALMAG=     F  switch on orbital magnetization
   LCHIMAG   =     F  perturbation theory with respect to B field
   DQ        =  0.001000  dq finite difference perturbation B field
   LLRAUG    =     F  two centre corrections for induced B field



--------------------------------------------------------------------------------------------------------


 Static calculation
 charge density and potential will be updated during run
 non-spin polarized calculation
 Conjugate gradient for all bands (Freysoldt, et al. PRB 79, 241103 (2009))
 preconditioned conjugated gradient                                        
 perform sub-space diagonalisation
    before iterative eigenvector-optimisation
 modified Broyden-mixing scheme, WC =      100.0
 initial mixing is a Kerker type mixing with AMIX =  0.4000 and BMIX =      1.0000
 Hartree-type preconditioning will be used
 using additional bands           28
 reciprocal scheme for non local part
 use partial core corrections
 no Harris-corrections to forces 
 use gradient corrections 
 use of overlap-Matrix (Vanderbilt PP)
 Gauss-broadening in eV      SIGMA  =   0.01


--------------------------------------------------------------------------------------------------------


  energy-cutoff  :     1000.00
  volume of cell :     3288.85
      direct lattice vectors                 reciprocal lattice vectors
    12.325000000  0.000000000  0.000000000     0.081135903  0.046843835  0.000000000
    -6.162500000 10.673763102  0.000000000     0.000000000  0.093687670  0.000000000
     0.000000000  0.000000000 25.000000000     0.000000000  0.000000000  0.040000000

  length of vectors
    12.325000000 12.325000000 25.000000000     0.093687670  0.093687670  0.040000000


 
 k-points in units of 2pi/SCALE and weight: auto                                    
   0.00000000  0.00000000  0.00000000       1.000
 
 k-points in reciprocal lattice and weights: auto                                    
   0.00000000  0.00000000  0.00000000       1.000
 
 position of ions in fractional coordinates (direct lattice) 
   0.97245084  0.00032082  0.00056671
   0.03911838  0.13365950  0.00044017
   0.17244363  0.00029545  0.00049963
   0.23909628  0.13364792  0.00025647
   0.97245206  0.20032201  0.00048522
   0.03912836  0.33364377  0.00044415
   0.17245176  0.20035455  0.00021917
   0.23912436  0.33366572  0.00007226
   0.37246557  0.00032440  0.00045391
   0.43913747  0.13361994  0.00025834
   0.97244982  0.40030936  0.00054761
   0.03912498  0.53363679  0.00057341
   0.37241618  0.40032948  0.00000000
   0.43909960  0.53363898  0.00023241
   0.57244368  0.00031213  0.00055958
   0.63911021  0.13363175  0.00054727
   0.97245270  0.60030565  0.00064029
   0.03912449  0.73364036  0.00065451
   0.57243347  0.60030624  0.00040289
   0.63911189  0.73364188  0.00052791
   0.17245463  0.40031823  0.00028904
   0.23912018  0.53363655  0.00037851
   0.37245975  0.20029599  0.00008900
   0.43910710  0.33367342  0.00005576
   0.17245216  0.60031151  0.00052434
   0.23912337  0.73363857  0.00057513
   0.57243108  0.20028917  0.00041330
   0.63911277  0.33361863  0.00046238
   0.37243981  0.60030802  0.00036284
   0.43911609  0.73363786  0.00049419
   0.57246936  0.40032050  0.00033992
   0.63911941  0.53365087  0.00045961
   0.77244572  0.00031543  0.00059616
   0.83911628  0.13364020  0.00057531
   0.77244051  0.20030743  0.00058103
   0.83912024  0.33363573  0.00058547
   0.77244632  0.40029837  0.00058298
   0.83911898  0.53363396  0.00062110
   0.77245614  0.60030817  0.00059571
   0.83911503  0.73364318  0.00063151
   0.97245531  0.80030558  0.00065223
   0.03911471  0.93364329  0.00059805
   0.17245797  0.80031221  0.00062337
   0.23913455  0.93364719  0.00054485
   0.37245140  0.80031667  0.00055140
   0.43912449  0.93364477  0.00054143
   0.57244110  0.80031005  0.00053453
   0.63911507  0.93363899  0.00058764
   0.77244510  0.80031319  0.00060206
   0.83911661  0.93364434  0.00060683
   0.37302101  0.25122688  0.21189262
   0.42087980  0.18931315  0.21446949
   0.32515698  0.31316719  0.20951442
 
 position of ions in cartesian coordinates  (Angst):
  11.98347958  0.00342433  0.01416777
  -0.34154264  1.42664989  0.01100432
   2.12354700  0.00315355  0.01249070
   2.12325634  1.42652621  0.00641170
  10.75098721  2.13818970  0.01213047
  -1.57382270  3.56123457  0.01110375
   0.89078307  2.13853702  0.00547917
   0.89099273  3.56146885  0.00180651
   4.58863896  0.00346260  0.01134782
   4.58893648  1.42622757  0.00645846
   9.51853763  4.27280730  0.01369027
  -2.80632132  5.69591267  0.01433526
   2.12299894  4.27302204  0.00000000
   2.12335237  5.69593607  0.00581036
   7.05344483  0.00333155  0.01398950
   7.05352764  1.42635365  0.01368187
   8.28609598  6.40752033  0.01600723
  -4.03884931  7.83070339  0.01636283
   3.35585531  6.40752662  0.01007237
   3.35598594  7.83071962  0.01319763
  -0.34145776  4.27290193  0.00722612
  -0.34137895  5.69591010  0.00946273
   3.35624236  2.13791198  0.00222492
   3.35573251  3.56155103  0.00139405
  -1.57394684  6.40758280  0.01310850
  -1.57385216  7.83068434  0.01437823
   5.82093107  2.13783916  0.01033241
   5.82114012  3.56096622  0.01155939
   0.89092245  6.40754561  0.00907111
   0.89106251  7.83067670  0.01235474
   4.58870974  4.27292622  0.00849795
   4.58852320  5.69606300  0.01149026
   9.51844972  0.00336679  0.01490402
   9.51855036  1.42644387  0.01438264
   8.28593477  2.13803408  0.01452582
   8.28612680  3.56114872  0.01463668
   7.05356221  4.27268994  0.01457444
   7.05362213  5.69588251  0.01552751
   5.82112285  6.40754723  0.01489279
   5.82101669  7.83073350  0.01578780
   7.05362858  8.54227219  0.01630582
  -5.27148792  9.96548729  0.01495127
  -2.80637951  8.54234295  0.01558431
  -2.80626749  9.96552896  0.01362126
  -0.34148805  8.54239058  0.01378498
  -0.34137657  9.96550309  0.01353576
   2.12342586  8.54231992  0.01336337
   2.12354296  9.96544135  0.01469111
   4.58845581  8.54235337  0.01505154
   4.58852904  9.96549848  0.01517076
   3.04929830  2.68153618  5.29731547
   4.02070129  2.02068374  5.36173733
   2.07766701  3.34267235  5.23786060
 


--------------------------------------------------------------------------------------------------------


 k-point   1 :   0.0000 0.0000 0.0000  plane waves:  236157

 maximum and minimum number of plane-waves per node :      8440     8428

 maximum number of plane-waves:    236157
 maximum index in each direction: 
   IXMAX=   31   IYMAX=   31   IZMAX=   64
   IXMIN=  -31   IYMIN=  -31   IZMIN=  -64


 parallel 3D FFT for wavefunctions:
    minimum data exchange during FFTs selected (reduces bandwidth)
 parallel 3D FFT for charge:
    minimum data exchange during FFTs selected (reduces bandwidth)


 total amount of memory used by VASP MPI-rank0   100580. kBytes
=======================================================================

   base      :      30000. kBytes
   nonl-proj :       8229. kBytes
   fftplans  :      18352. kBytes
   grid      :      30208. kBytes
   one-center:          6. kBytes
   wavefun   :      13785. kBytes
 
     INWAV:  cpu time    0.0000: real time    0.0000
 Broyden mixing: mesh for mixing (old mesh)
   NGX = 63   NGY = 63   NGZ =129
  (NGX  =256   NGY  =256   NGZ  =540)
  gives a total of 512001 points

 initial charge density was supplied:
 charge density of overlapping atoms calculated
 number of electron     216.0000000 magnetization 
 keeping initial charge density in first step


--------------------------------------------------------------------------------------------------------


 Maximum index for augmentation-charges          471 (set IRDMAX)


--------------------------------------------------------------------------------------------------------


 First call to EWALD:  gamma=   0.119
 Maximum number of real-space cells 4x 4x 2
 Maximum number of reciprocal cells 2x 2x 4

    FEWALD:  cpu time    0.0029: real time    0.0030


--------------------------------------- Iteration      1(   1)  ---------------------------------------


vdW kernel read from vdw_kernel.bindat
  0.0000  0.2424  0.5071  0.7962  1.1119  1.4567  1.8333  2.2446  2.6937  3.1842
  3.7199  4.3049  4.9438  5.6415  6.4036  7.2358  8.1446  9.1372 10.2212 11.4050
 12.6979 14.1099 15.6519 17.3360 19.1751 21.1837 23.3773 25.7729 28.3892 31.2465
 34.3669 37.7748 41.4965 45.5611 50.0000
 
    POTLOK:  cpu time    4.5892: real time    4.6286
    SETDIJ:  cpu time    0.0562: real time    0.0566
    TRIAL :  cpu time    2.0940: real time    2.1152
    CORREC:  cpu time    0.0004: real time    0.0004
    --------------------------------------------
      LOOP:  cpu time    6.7450: real time    6.8207

 eigenvalue-minimisations  :   288
 total energy-change (2. order) : 0.2751334E+04  (-0.1020556E+05)
 number of electron     216.0000000 magnetization 
 augmentation part      216.0000000 magnetization 

 Free energy of the ion-electron system (eV)
  ---------------------------------------------------
  alpha Z        PSCENC =        47.94900195
  Ewald energy   TEWEN  =     44407.38298792
  -Hartree energ DENC   =    -50476.55488451
  -exchange      EXHF   =         0.00000000
  -V(xc)+E(xc)   XCENC  =       412.33163255
  PAW double counting   =      6548.36373666    -6261.59511771
  entropy T*S    EENTRO =        -0.00000000
  eigenvalues    EBANDS =      -347.48943310
  atomic energy  EATOM  =      8420.94593319
  ---------------------------------------------------
  free energy    TOTEN  =      2751.33385696 eV

  energy without entropy =     2751.33385696  energy(sigma->0) =     2751.33385696


--------------------------------------------------------------------------------------------------------




--------------------------------------- Iteration      1(   2)  ---------------------------------------


    TRIAL :  cpu time    2.8327: real time    2.8584
    CORREC:  cpu time    0.0001: real time    0.0001
    --------------------------------------------
      LOOP:  cpu time    2.8633: real time    2.8919

 eigenvalue-minimisations  :   440
 total energy-change (2. order) :-0.2319845E+04  (-0.2170796E+04)
 number of electron     216.0000000 magnetization 
 augmentation part      216.0000000 magnetization 

 Free energy of the ion-electron system (eV)
  ---------------------------------------------------
  alpha Z        PSCENC =        47.94900195
  Ewald energy   TEWEN  =     44407.38298792
  -Hartree energ DENC   =    -50476.55488451
  -exchange      EXHF   =         0.00000000
  -V(xc)+E(xc)   XCENC  =       412.33163255
  PAW double counting   =      6548.36373666    -6261.59511771
  entropy T*S    EENTRO =        -0.00000000
  eigenvalues    EBANDS =     -2667.33476143
  atomic energy  EATOM  =      8420.94593319
  ---------------------------------------------------
  free energy    TOTEN  =       431.48852863 eV

  energy without entropy =      431.48852863  energy(sigma->0) =      431.48852863


--------------------------------------------------------------------------------------------------------




--------------------------------------- Iteration      1(   3)  ---------------------------------------


    TRIAL :  cpu time    2.3292: real time    2.3497
    CORREC:  cpu time    0.0001: real time    0.0001
    --------------------------------------------
      LOOP:  cpu time    2.4462: real time    2.4676

 eigenvalue-minimisations  :   344
 total energy-change (2. order) :-0.8138656E+03  (-0.8014431E+03)
 number of electron     216.0000000 magnetization 
 augmentation part      216.0000000 magnetization 

 Free energy of the ion-electron system (eV)
  ---------------------------------------------------
  alpha Z        PSCENC =        47.94900195
  Ewald energy   TEWEN  =     44407.38298792
  -Hartree energ DENC   =    -50476.55488451
  -exchange      EXHF   =         0.00000000
  -V(xc)+E(xc)   XCENC  =       412.33163255
  PAW double counting   =      6548.36373666    -6261.59511771
  entropy T*S    EENTRO =        -0.00000000
  eigenvalues    EBANDS =     -3481.20038538
  atomic energy  EATOM  =      8420.94593319
  ---------------------------------------------------
  free energy    TOTEN  =      -382.37709532 eV

  energy without entropy =     -382.37709532  energy(sigma->0) =     -382.37709532


--------------------------------------------------------------------------------------------------------




--------------------------------------- Iteration      1(   4)  ---------------------------------------


    TRIAL :  cpu time    2.2878: real time    2.3086
    CORREC:  cpu time    0.0001: real time    0.0001
    --------------------------------------------
      LOOP:  cpu time    2.3240: real time    2.3502

 eigenvalue-minimisations  :   328
 total energy-change (2. order) :-0.7564622E+02  (-0.7456593E+02)
 number of electron     216.0000000 magnetization 
 augmentation part      216.0000000 magnetization 

 Free energy of the ion-electron system (eV)
  ---------------------------------------------------
  alpha Z        PSCENC =        47.94900195
  Ewald energy   TEWEN  =     44407.38298792
  -Hartree energ DENC   =    -50476.55488451
  -exchange      EXHF   =         0.00000000
  -V(xc)+E(xc)   XCENC  =       412.33163255
  PAW double counting   =      6548.36373666    -6261.59511771
  entropy T*S    EENTRO =        -0.00000000
  eigenvalues    EBANDS =     -3556.84660782
  atomic energy  EATOM  =      8420.94593319
  ---------------------------------------------------
  free energy    TOTEN  =      -458.02331776 eV

  energy without entropy =     -458.02331776  energy(sigma->0) =     -458.02331776


--------------------------------------------------------------------------------------------------------




--------------------------------------- Iteration      1(   5)  ---------------------------------------


    TRIAL :  cpu time    2.3347: real time    2.3557
    CORREC:  cpu time    0.0001: real time    0.0001
    CHARGE:  cpu time    0.1805: real time    0.1828
    --------------------------------------------
      LOOP:  cpu time    2.5471: real time    2.5732

 eigenvalue-minimisations  :   344
 total energy-change (2. order) :-0.2308988E+01  (-0.2294538E+01)
 number of electron     216.0000000 magnetization 
 augmentation part       -0.2355545 magnetization 

 Free energy of the ion-electron system (eV)
  ---------------------------------------------------
  alpha Z        PSCENC =        47.94900195
  Ewald energy   TEWEN  =     44407.38298792
  -Hartree energ DENC   =    -50476.55488451
  -exchange      EXHF   =         0.00000000
  -V(xc)+E(xc)   XCENC  =       412.33163255
  PAW double counting   =      6548.36373666    -6261.59511771
  entropy T*S    EENTRO =        -0.00000000
  eigenvalues    EBANDS =     -3559.15559539
  atomic energy  EATOM  =      8420.94593319
  ---------------------------------------------------
  free energy    TOTEN  =      -460.33230533 eV

  energy without entropy =     -460.33230533  energy(sigma->0) =     -460.33230533


--------------------------------------------------------------------------------------------------------




--------------------------------------- Iteration      1(   6)  ---------------------------------------


    POTLOK:  cpu time    4.2940: real time    4.3248
    SETDIJ:  cpu time    0.0543: real time    0.0545
    TRIAL :  cpu time    1.1622: real time    1.1728
    CORREC:  cpu time    4.7794: real time    4.8177
    CHARGE:  cpu time    0.1785: real time    0.1806
    --------------------------------------------
      LOOP:  cpu time   10.5368: real time   10.6216

 eigenvalue-minimisations  :     0
 total energy-change (2. order) : 0.5238911E+02  (-0.1632841E+02)
 number of electron     216.0000000 magnetization 
 augmentation part       -0.3308020 magnetization 

 Free energy of the ion-electron system (eV)
  ---------------------------------------------------
  alpha Z        PSCENC =        47.94900195
  Ewald energy   TEWEN  =     44407.38298792
  -Hartree energ DENC   =    -51918.22021338
  -exchange      EXHF   =         0.00000000
  -V(xc)+E(xc)   XCENC  =       460.09091798
  PAW double counting   =     80533.79896756   -80253.44564642
  entropy T*S    EENTRO =        -0.00000000
  eigenvalues    EBANDS =     -2106.44514096
  atomic energy  EATOM  =      8420.94593319
  ---------------------------------------------------
  free energy    TOTEN  =      -407.94319215 eV

  energy without entropy =     -407.94319215  energy(sigma->0) =     -407.94319215


--------------------------------------------------------------------------------------------------------




--------------------------------------- Iteration      1(   7)  ---------------------------------------


    POTLOK:  cpu time    4.2812: real time    4.3219
    SETDIJ:  cpu time    0.0543: real time    0.0545
    TRIAL :  cpu time    1.1567: real time    1.1679
    CORREC:  cpu time    4.7775: real time    4.8155
    CHARGE:  cpu time    0.1775: real time    0.1794
    --------------------------------------------
      LOOP:  cpu time   10.4986: real time   10.6043

 eigenvalue-minimisations  :     0
 total energy-change (2. order) :-0.1638116E+02  (-0.1871870E+01)
 number of electron     216.0000000 magnetization 
 augmentation part       -0.3762476 magnetization 

 Free energy of the ion-electron system (eV)
  ---------------------------------------------------
  alpha Z        PSCENC =        47.94900195
  Ewald energy   TEWEN  =     44407.38298792
  -Hartree energ DENC   =    -51396.40204434
  -exchange      EXHF   =         0.00000000
  -V(xc)+E(xc)   XCENC  =       442.69494599
  PAW double counting   =     95646.14625005   -95363.05968497
  entropy T*S    EENTRO =        -0.00000000
  eigenvalues    EBANDS =     -2629.98174006
  atomic energy  EATOM  =      8420.94593319
  ---------------------------------------------------
  free energy    TOTEN  =      -424.32435026 eV

  energy without entropy =     -424.32435026  energy(sigma->0) =     -424.32435026


--------------------------------------------------------------------------------------------------------




--------------------------------------- Iteration      1(   8)  ---------------------------------------


    POTLOK:  cpu time    4.2859: real time    4.3181
    SETDIJ:  cpu time    0.0543: real time    0.0545
    TRIAL :  cpu time    1.1556: real time    1.1680
    CORREC:  cpu time    4.7925: real time    4.8330
    CHARGE:  cpu time    0.1791: real time    0.1810
    --------------------------------------------
      LOOP:  cpu time   10.5068: real time   10.6180

 eigenvalue-minimisations  :     0
 total energy-change (2. order) :-0.1870527E+01  (-0.5224886E+00)
 number of electron     216.0000000 magnetization 
 augmentation part       -0.3941846 magnetization 

 Free energy of the ion-electron system (eV)
  ---------------------------------------------------
  alpha Z        PSCENC =        47.94900195
  Ewald energy   TEWEN  =     44407.38298792
  -Hartree energ DENC   =    -51368.89578119
  -exchange      EXHF   =         0.00000000
  -V(xc)+E(xc)   XCENC  =       442.22096847
  PAW double counting   =     99706.92769912   -99423.50684535
  entropy T*S    EENTRO =        -0.00000000
  eigenvalues    EBANDS =     -2659.21884126
  atomic energy  EATOM  =      8420.94593319
  ---------------------------------------------------
  free energy    TOTEN  =      -426.19487715 eV

  energy without entropy =     -426.19487715  energy(sigma->0) =     -426.19487715


--------------------------------------------------------------------------------------------------------




--------------------------------------- Iteration      1(   9)  ---------------------------------------


    POTLOK:  cpu time    4.3257: real time    4.3629
    SETDIJ:  cpu time    0.0544: real time    0.0546
    TRIAL :  cpu time    1.1538: real time    1.1671
    CORREC:  cpu time    4.7800: real time    4.8246
    CHARGE:  cpu time    0.1780: real time    0.1800
    --------------------------------------------
      LOOP:  cpu time   10.5754: real time   10.6782

 eigenvalue-minimisations  :     0
 total energy-change (2. order) :-0.5225086E+00  (-0.2004169E+00)
 number of electron     216.0000000 magnetization 
 augmentation part       -0.4026782 magnetization 

 Free energy of the ion-electron system (eV)
  ---------------------------------------------------
  alpha Z        PSCENC =        47.94900195
  Ewald energy   TEWEN  =     44407.38298792
  -Hartree energ DENC   =    -51384.24347238
  -exchange      EXHF   =         0.00000000
  -V(xc)+E(xc)   XCENC  =       442.40749828
  PAW double counting   =    102501.10144636  -102217.53214032
  entropy T*S    EENTRO =        -0.00000000
  eigenvalues    EBANDS =     -2644.72864078
  atomic energy  EATOM  =      8420.94593319
  ---------------------------------------------------
  free energy    TOTEN  =      -426.71738576 eV

  energy without entropy =     -426.71738576  energy(sigma->0) =     -426.71738576


--------------------------------------------------------------------------------------------------------




--------------------------------------- Iteration      1(  10)  ---------------------------------------


    POTLOK:  cpu time    4.2896: real time    4.3271
    SETDIJ:  cpu time    0.0543: real time    0.0545
    TRIAL :  cpu time    1.1528: real time    1.1666
    CORREC:  cpu time    4.7747: real time    4.8189
    CHARGE:  cpu time    0.1784: real time    0.1805
    --------------------------------------------
      LOOP:  cpu time   10.4926: real time   10.5910

 eigenvalue-minimisations  :     0
 total energy-change (2. order) :-0.1998470E+00  (-0.9596519E-01)
 number of electron     216.0000000 magnetization 
 augmentation part       -0.4025226 magnetization 

 Free energy of the ion-electron system (eV)
  ---------------------------------------------------
  alpha Z        PSCENC =        47.94900195
  Ewald energy   TEWEN  =     44407.38298792
  -Hartree energ DENC   =    -51381.27769856
  -exchange      EXHF   =         0.00000000
  -V(xc)+E(xc)   XCENC  =       442.24395940
  PAW double counting   =    103083.48087420  -102799.81583423
  entropy T*S    EENTRO =        -0.00000000
  eigenvalues    EBANDS =     -2647.82645661
  atomic energy  EATOM  =      8420.94593319
  ---------------------------------------------------
  free energy    TOTEN  =      -426.91723273 eV

  energy without entropy =     -426.91723273  energy(sigma->0) =     -426.91723273


--------------------------------------------------------------------------------------------------------




--------------------------------------- Iteration      1(  11)  ---------------------------------------


    POTLOK:  cpu time    4.3371: real time    4.3788
    SETDIJ:  cpu time    0.0542: real time    0.0545
    TRIAL :  cpu time    1.1537: real time    1.1682
    CORREC:  cpu time    4.7765: real time    4.8211
    CHARGE:  cpu time    0.1771: real time    0.1795
    --------------------------------------------
      LOOP:  cpu time   10.5746: real time   10.6789

 eigenvalue-minimisations  :     0
 total energy-change (2. order) :-0.9547828E-01  (-0.3904995E-01)
 number of electron     216.0000000 magnetization 
 augmentation part       -0.4014044 magnetization 

 Free energy of the ion-electron system (eV)
  ---------------------------------------------------
  alpha Z        PSCENC =        47.94900195
  Ewald energy   TEWEN  =     44407.38298792
  -Hartree energ DENC   =    -51373.38467565
  -exchange      EXHF   =         0.00000000
  -V(xc)+E(xc)   XCENC  =       442.12701785
  PAW double counting   =    102599.66726678  -102316.00660553
  entropy T*S    EENTRO =        -0.00000000
  eigenvalues    EBANDS =     -2655.69363753
  atomic energy  EATOM  =      8420.94593319
  ---------------------------------------------------
  free energy    TOTEN  =      -427.01271101 eV

  energy without entropy =     -427.01271101  energy(sigma->0) =     -427.01271101


--------------------------------------------------------------------------------------------------------




--------------------------------------- Iteration      1(  12)  ---------------------------------------


    POTLOK:  cpu time    4.2925: real time    4.3323
    SETDIJ:  cpu time    0.0543: real time    0.0545
    TRIAL :  cpu time    1.1532: real time    1.1671
    CORREC:  cpu time    5.0978: real time    5.1442
    CHARGE:  cpu time    0.1779: real time    0.1800
    --------------------------------------------
      LOOP:  cpu time   10.8434: real time   10.9495

 eigenvalue-minimisations  :     0
 total energy-change (2. order) :-0.3893593E-01  (-0.1196834E-01)
 number of electron     216.0000000 magnetization 
 augmentation part       -0.4009662 magnetization 

 Free energy of the ion-electron system (eV)
  ---------------------------------------------------
  alpha Z        PSCENC =        47.94900195
  Ewald energy   TEWEN  =     44407.38298792
  -Hartree energ DENC   =    -51369.62966247
  -exchange      EXHF   =         0.00000000
  -V(xc)+E(xc)   XCENC  =       442.03911543
  PAW double counting   =    102177.61274617  -101893.97667354
  entropy T*S    EENTRO =        -0.00000000
  eigenvalues    EBANDS =     -2659.37509560
  atomic energy  EATOM  =      8420.94593319
  ---------------------------------------------------
  free energy    TOTEN  =      -427.05164694 eV

  energy without entropy =     -427.05164694  energy(sigma->0) =     -427.05164694


--------------------------------------------------------------------------------------------------------




--------------------------------------- Iteration      1(  13)  ---------------------------------------


    POTLOK:  cpu time    4.2905: real time    4.3223
    SETDIJ:  cpu time    0.0543: real time    0.0544
    TRIAL :  cpu time    1.1729: real time    1.1843
    CORREC:  cpu time    4.7690: real time    4.8065
    CHARGE:  cpu time    0.1792: real time    0.1811
    --------------------------------------------
      LOOP:  cpu time   10.5195: real time   10.6194

 eigenvalue-minimisations  :     0
 total energy-change (2. order) :-0.1196068E-01  (-0.3397537E-02)
 number of electron     216.0000000 magnetization 
 augmentation part       -0.4002229 magnetization 

 Free energy of the ion-electron system (eV)
  ---------------------------------------------------
  alpha Z        PSCENC =        47.94900195
  Ewald energy   TEWEN  =     44407.38298792
  -Hartree energ DENC   =    -51369.62182393
  -exchange      EXHF   =         0.00000000
  -V(xc)+E(xc)   XCENC  =       442.02934410
  PAW double counting   =    101995.72996036  -101712.10800562
  entropy T*S    EENTRO =        -0.00000000
  eigenvalues    EBANDS =     -2659.37100560
  atomic energy  EATOM  =      8420.94593319
  ---------------------------------------------------
  free energy    TOTEN  =      -427.06360762 eV

  energy without entropy =     -427.06360762  energy(sigma->0) =     -427.06360762


--------------------------------------------------------------------------------------------------------




--------------------------------------- Iteration      1(  14)  ---------------------------------------


    POTLOK:  cpu time    4.2917: real time    4.3285
    SETDIJ:  cpu time    0.0544: real time    0.0546
    TRIAL :  cpu time    1.1610: real time    1.1722
    CORREC:  cpu time    4.7833: real time    4.8205
    CHARGE:  cpu time    0.1785: real time    0.1804
    --------------------------------------------
      LOOP:  cpu time   10.5176: real time   10.6073

 eigenvalue-minimisations  :     0
 total energy-change (2. order) :-0.3398455E-02  (-0.1216656E-02)
 number of electron     216.0000000 magnetization 
 augmentation part       -0.3998534 magnetization 

 Free energy of the ion-electron system (eV)
  ---------------------------------------------------
  alpha Z        PSCENC =        47.94900195
  Ewald energy   TEWEN  =     44407.38298792
  -Hartree energ DENC   =    -51369.74482834
  -exchange      EXHF   =         0.00000000
  -V(xc)+E(xc)   XCENC  =       442.03022762
  PAW double counting   =    101966.68859388  -101683.07232428
  entropy T*S    EENTRO =        -0.00000000
  eigenvalues    EBANDS =     -2659.24659802
  atomic energy  EATOM  =      8420.94593319
  ---------------------------------------------------
  free energy    TOTEN  =      -427.06700608 eV

  energy without entropy =     -427.06700608  energy(sigma->0) =     -427.06700608


--------------------------------------------------------------------------------------------------------




--------------------------------------- Iteration      1(  15)  ---------------------------------------


    POTLOK:  cpu time    4.2952: real time    4.3268
    SETDIJ:  cpu time    0.0544: real time    0.0545
    TRIAL :  cpu time    1.1539: real time    1.1653
    CORREC:  cpu time    4.7622: real time    4.7993
    CHARGE:  cpu time    0.1788: real time    0.1806
    --------------------------------------------
      LOOP:  cpu time   10.5185: real time   10.6041

 eigenvalue-minimisations  :     0
 total energy-change (2. order) :-0.1218542E-02  (-0.6191039E-03)
 number of electron     216.0000000 magnetization 
 augmentation part       -0.3993970 magnetization 

 Free energy of the ion-electron system (eV)
  ---------------------------------------------------
  alpha Z        PSCENC =        47.94900195
  Ewald energy   TEWEN  =     44407.38298792
  -Hartree energ DENC   =    -51369.39554935
  -exchange      EXHF   =         0.00000000
  -V(xc)+E(xc)   XCENC  =       442.01106212
  PAW double counting   =    101950.76907512  -101667.15140996
  entropy T*S    EENTRO =        -0.00000000
  eigenvalues    EBANDS =     -2659.57932562
  atomic energy  EATOM  =      8420.94593319
  ---------------------------------------------------
  free energy    TOTEN  =      -427.06822462 eV

  energy without entropy =     -427.06822462  energy(sigma->0) =     -427.06822462


--------------------------------------------------------------------------------------------------------




--------------------------------------- Iteration      1(  16)  ---------------------------------------


    POTLOK:  cpu time    4.2843: real time    4.3174
    SETDIJ:  cpu time    0.0544: real time    0.0546
    TRIAL :  cpu time    1.1550: real time    1.1675
    CORREC:  cpu time    4.8011: real time    4.8384
    CHARGE:  cpu time    0.1741: real time    0.1835
    --------------------------------------------
      LOOP:  cpu time   10.5379: real time   10.6350

 eigenvalue-minimisations  :     0
 total energy-change (2. order) :-0.6205114E-03  (-0.3273938E-03)
 number of electron     216.0000000 magnetization 
 augmentation part       -0.3992637 magnetization 

 Free energy of the ion-electron system (eV)
  ---------------------------------------------------
  alpha Z        PSCENC =        47.94900195
  Ewald energy   TEWEN  =     44407.38298792
  -Hartree energ DENC   =    -51369.82381348
  -exchange      EXHF   =         0.00000000
  -V(xc)+E(xc)   XCENC  =       442.02550765
  PAW double counting   =    101889.26255396  -101605.64689034
  entropy T*S    EENTRO =        -0.00000000
  eigenvalues    EBANDS =     -2659.16412599
  atomic energy  EATOM  =      8420.94593319
  ---------------------------------------------------
  free energy    TOTEN  =      -427.06884513 eV

  energy without entropy =     -427.06884513  energy(sigma->0) =     -427.06884513


--------------------------------------------------------------------------------------------------------




--------------------------------------- Iteration      1(  17)  ---------------------------------------


    POTLOK:  cpu time    4.3048: real time    4.3365
    SETDIJ:  cpu time    0.0545: real time    0.0547
    TRIAL :  cpu time    1.1539: real time    1.1648
    CORREC:  cpu time    4.7685: real time    4.8071
    CHARGE:  cpu time    0.1789: real time    0.1810
    --------------------------------------------
      LOOP:  cpu time   10.5181: real time   10.6105

 eigenvalue-minimisations  :     0
 total energy-change (2. order) :-0.3284280E-03  (-0.1327434E-03)
 number of electron     216.0000000 magnetization 
 augmentation part       -0.3993646 magnetization 

 Free energy of the ion-electron system (eV)
  ---------------------------------------------------
  alpha Z        PSCENC =        47.94900195
  Ewald energy   TEWEN  =     44407.38298792
  -Hartree energ DENC   =    -51370.06140761
  -exchange      EXHF   =         0.00000000
  -V(xc)+E(xc)   XCENC  =       442.02998658
  PAW double counting   =    101830.15252214  -101546.53627422
  entropy T*S    EENTRO =        -0.00000000
  eigenvalues    EBANDS =     -2658.93192352
  atomic energy  EATOM  =      8420.94593319
  ---------------------------------------------------
  free energy    TOTEN  =      -427.06917356 eV

  energy without entropy =     -427.06917356  energy(sigma->0) =     -427.06917356


--------------------------------------------------------------------------------------------------------




--------------------------------------- Iteration      1(  18)  ---------------------------------------


    POTLOK:  cpu time    4.2931: real time    4.3253
    SETDIJ:  cpu time    0.0544: real time    0.0546
    TRIAL :  cpu time    1.1559: real time    1.1668
    CORREC:  cpu time    4.7804: real time    4.8178
    CHARGE:  cpu time    0.1794: real time    0.1812
    --------------------------------------------
      LOOP:  cpu time   10.5019: real time   10.5889

 eigenvalue-minimisations  :     0
 total energy-change (2. order) :-0.1328325E-03  (-0.5014119E-04)
 number of electron     216.0000000 magnetization 
 augmentation part       -0.3995473 magnetization 

 Free energy of the ion-electron system (eV)
  ---------------------------------------------------
  alpha Z        PSCENC =        47.94900195
  Ewald energy   TEWEN  =     44407.38298792
  -Hartree energ DENC   =    -51370.11131575
  -exchange      EXHF   =         0.00000000
  -V(xc)+E(xc)   XCENC  =       442.03159847
  PAW double counting   =    101821.36111066  -101537.74398797
  entropy T*S    EENTRO =        -0.00000000
  eigenvalues    EBANDS =     -2658.88463488
  atomic energy  EATOM  =      8420.94593319
  ---------------------------------------------------
  free energy    TOTEN  =      -427.06930639 eV

  energy without entropy =     -427.06930639  energy(sigma->0) =     -427.06930639


--------------------------------------------------------------------------------------------------------




--------------------------------------- Iteration      1(  19)  ---------------------------------------


    POTLOK:  cpu time    4.2932: real time    4.3242
    SETDIJ:  cpu time    0.0544: real time    0.0546
    TRIAL :  cpu time    1.1560: real time    1.1672
    CORREC:  cpu time    4.7843: real time    4.8210
    CHARGE:  cpu time    0.1789: real time    0.1808
    --------------------------------------------
      LOOP:  cpu time   10.5314: real time   10.6219

 eigenvalue-minimisations  :     0
 total energy-change (2. order) :-0.4983749E-04  (-0.2131371E-04)
 number of electron     216.0000000 magnetization 
 augmentation part       -0.3996537 magnetization 

 Free energy of the ion-electron system (eV)
  ---------------------------------------------------
  alpha Z        PSCENC =        47.94900195
  Ewald energy   TEWEN  =     44407.38298792
  -Hartree energ DENC   =    -51370.10343775
  -exchange      EXHF   =         0.00000000
  -V(xc)+E(xc)   XCENC  =       442.03110220
  PAW double counting   =    101837.15283223  -101553.53491933
  entropy T*S    EENTRO =        -0.00000000
  eigenvalues    EBANDS =     -2658.89285665
  atomic energy  EATOM  =      8420.94593319
  ---------------------------------------------------
  free energy    TOTEN  =      -427.06935623 eV

  energy without entropy =     -427.06935623  energy(sigma->0) =     -427.06935623


--------------------------------------------------------------------------------------------------------




--------------------------------------- Iteration      1(  20)  ---------------------------------------


    POTLOK:  cpu time    4.2867: real time    4.3176
    SETDIJ:  cpu time    0.0544: real time    0.0546
    TRIAL :  cpu time    1.1601: real time    1.1713
    CORREC:  cpu time    4.7825: real time    4.8213
    CHARGE:  cpu time    0.1796: real time    0.1814
    --------------------------------------------
      LOOP:  cpu time   10.5310: real time   10.6184

 eigenvalue-minimisations  :     0
 total energy-change (2. order) :-0.2084012E-04  (-0.1073028E-04)
 number of electron     216.0000000 magnetization 
 augmentation part       -0.3996857 magnetization 

 Free energy of the ion-electron system (eV)
  ---------------------------------------------------
  alpha Z        PSCENC =        47.94900195
  Ewald energy   TEWEN  =     44407.38298792
  -Hartree energ DENC   =    -51370.11449784
  -exchange      EXHF   =         0.00000000
  -V(xc)+E(xc)   XCENC  =       442.03154752
  PAW double counting   =    101851.96403686  -101568.34606132
  entropy T*S    EENTRO =        -0.00000000
  eigenvalues    EBANDS =     -2658.88232535
  atomic energy  EATOM  =      8420.94593319
  ---------------------------------------------------
  free energy    TOTEN  =      -427.06937707 eV

  energy without entropy =     -427.06937707  energy(sigma->0) =     -427.06937707


--------------------------------------------------------------------------------------------------------




--------------------------------------- Iteration      1(  21)  ---------------------------------------


    POTLOK:  cpu time    4.3073: real time    4.3394
    SETDIJ:  cpu time    0.0545: real time    0.0546
    TRIAL :  cpu time    1.1581: real time    1.1693
    CORREC:  cpu time    4.7832: real time    4.8236
    CHARGE:  cpu time    0.1780: real time    0.1801
    --------------------------------------------
      LOOP:  cpu time   10.5291: real time   10.6171

 eigenvalue-minimisations  :     0
 total energy-change (2. order) :-0.1052633E-04  (-0.5055285E-05)
 number of electron     216.0000000 magnetization 
 augmentation part       -0.3996659 magnetization 

 Free energy of the ion-electron system (eV)
  ---------------------------------------------------
  alpha Z        PSCENC =        47.94900195
  Ewald energy   TEWEN  =     44407.38298792
  -Hartree energ DENC   =    -51370.07980525
  -exchange      EXHF   =         0.00000000
  -V(xc)+E(xc)   XCENC  =       442.03047263
  PAW double counting   =    101858.06619381  -101574.44830352
  entropy T*S    EENTRO =        -0.00000000
  eigenvalues    EBANDS =     -2658.91586834
  atomic energy  EATOM  =      8420.94593319
  ---------------------------------------------------
  free energy    TOTEN  =      -427.06938760 eV

  energy without entropy =     -427.06938760  energy(sigma->0) =     -427.06938760


--------------------------------------------------------------------------------------------------------




--------------------------------------- Iteration      1(  22)  ---------------------------------------


    POTLOK:  cpu time    4.2737: real time    4.3050
    SETDIJ:  cpu time    0.0544: real time    0.0546
    TRIAL :  cpu time    1.1576: real time    1.1695
    CORREC:  cpu time    4.7884: real time    4.8285
    CHARGE:  cpu time    0.1802: real time    0.1820
    --------------------------------------------
      LOOP:  cpu time   10.4979: real time   10.5841

 eigenvalue-minimisations  :     0
 total energy-change (2. order) :-0.5052498E-05  (-0.2193940E-05)
 number of electron     216.0000000 magnetization 
 augmentation part       -0.3996454 magnetization 

 Free energy of the ion-electron system (eV)
  ---------------------------------------------------
  alpha Z        PSCENC =        47.94900195
  Ewald energy   TEWEN  =     44407.38298792
  -Hartree energ DENC   =    -51370.06191501
  -exchange      EXHF   =         0.00000000
  -V(xc)+E(xc)   XCENC  =       442.03000443
  PAW double counting   =    101857.55861196  -101573.94087337
  entropy T*S    EENTRO =        -0.00000000
  eigenvalues    EBANDS =     -2658.93314373
  atomic energy  EATOM  =      8420.94593319
  ---------------------------------------------------
  free energy    TOTEN  =      -427.06939265 eV

  energy without entropy =     -427.06939265  energy(sigma->0) =     -427.06939265


--------------------------------------------------------------------------------------------------------




--------------------------------------- Iteration      1(  23)  ---------------------------------------


    POTLOK:  cpu time    4.2900: real time    4.3215
    SETDIJ:  cpu time    0.0544: real time    0.0545
    TRIAL :  cpu time    1.1586: real time    1.1699
    CORREC:  cpu time    4.7712: real time    4.8091
    CHARGE:  cpu time    0.1803: real time    0.1821
    --------------------------------------------
      LOOP:  cpu time   10.4806: real time   10.5885

 eigenvalue-minimisations  :     0
 total energy-change (2. order) :-0.2214656E-05  (-0.8872578E-06)
 number of electron     216.0000000 magnetization 
 augmentation part       -0.3996376 magnetization 

 Free energy of the ion-electron system (eV)
  ---------------------------------------------------
  alpha Z        PSCENC =        47.94900195
  Ewald energy   TEWEN  =     44407.38298792
  -Hartree energ DENC   =    -51370.05624552
  -exchange      EXHF   =         0.00000000
  -V(xc)+E(xc)   XCENC  =       442.02992845
  PAW double counting   =    101855.83968580  -101572.22200501
  entropy T*S    EENTRO =        -0.00000000
  eigenvalues    EBANDS =     -2658.93868165
  atomic energy  EATOM  =      8420.94593319
  ---------------------------------------------------
  free energy    TOTEN  =      -427.06939486 eV

  energy without entropy =     -427.06939486  energy(sigma->0) =     -427.06939486


--------------------------------------------------------------------------------------------------------




--------------------------------------- Iteration      1(  24)  ---------------------------------------


    POTLOK:  cpu time    4.2980: real time    4.3321
    SETDIJ:  cpu time    0.0545: real time    0.0547
    TRIAL :  cpu time    1.1598: real time    1.1706
    CORREC:  cpu time    4.8393: real time    4.8806
    CHARGE:  cpu time    0.1783: real time    0.1802
    --------------------------------------------
      LOOP:  cpu time   10.5611: real time   10.6518

 eigenvalue-minimisations  :     0
 total energy-change (2. order) :-0.9064679E-06  (-0.3941092E-06)
 number of electron     216.0000000 magnetization 
 augmentation part       -0.3996349 magnetization 

 Free energy of the ion-electron system (eV)
  ---------------------------------------------------
  alpha Z        PSCENC =        47.94900195
  Ewald energy   TEWEN  =     44407.38298792
  -Hartree energ DENC   =    -51370.05306114
  -exchange      EXHF   =         0.00000000
  -V(xc)+E(xc)   XCENC  =       442.02996688
  PAW double counting   =    101854.94112868  -101571.32342941
  entropy T*S    EENTRO =        -0.00000000
  eigenvalues    EBANDS =     -2658.94192384
  atomic energy  EATOM  =      8420.94593319
  ---------------------------------------------------
  free energy    TOTEN  =      -427.06939577 eV

  energy without entropy =     -427.06939577  energy(sigma->0) =     -427.06939577


--------------------------------------------------------------------------------------------------------




--------------------------------------- Iteration      1(  25)  ---------------------------------------


    POTLOK:  cpu time    4.2725: real time    4.3052
    SETDIJ:  cpu time    0.0544: real time    0.0546
    TRIAL :  cpu time    1.1689: real time    1.1812
    CORREC:  cpu time    4.7767: real time    4.8144
    CHARGE:  cpu time    0.1780: real time    0.1799
    --------------------------------------------
      LOOP:  cpu time   10.5074: real time   10.6035

 eigenvalue-minimisations  :     0
 total energy-change (2. order) :-0.4065660E-06  (-0.1845048E-06)
 number of electron     216.0000000 magnetization 
 augmentation part       -0.3996319 magnetization 

 Free energy of the ion-electron system (eV)
  ---------------------------------------------------
  alpha Z        PSCENC =        47.94900195
  Ewald energy   TEWEN  =     44407.38298792
  -Hartree energ DENC   =    -51370.05513114
  -exchange      EXHF   =         0.00000000
  -V(xc)+E(xc)   XCENC  =       442.03004715
  PAW double counting   =    101854.55822404  -101570.94049613
  entropy T*S    EENTRO =        -0.00000000
  eigenvalues    EBANDS =     -2658.93996317
  atomic energy  EATOM  =      8420.94593319
  ---------------------------------------------------
  free energy    TOTEN  =      -427.06939618 eV

  energy without entropy =     -427.06939618  energy(sigma->0) =     -427.06939618


--------------------------------------------------------------------------------------------------------




--------------------------------------- Iteration      1(  26)  ---------------------------------------


    POTLOK:  cpu time    4.2950: real time    4.3259
    SETDIJ:  cpu time    0.0543: real time    0.0545
    TRIAL :  cpu time    1.1626: real time    1.1757
    CORREC:  cpu time    4.7430: real time    4.7916
    CHARGE:  cpu time    0.1785: real time    0.1812
    --------------------------------------------
      LOOP:  cpu time   10.4738: real time   10.5737

 eigenvalue-minimisations  :     0
 total energy-change (2. order) :-0.1898734E-06  (-0.8728479E-07)
 number of electron     216.0000000 magnetization 
 augmentation part       -0.3996290 magnetization 

 Free energy of the ion-electron system (eV)
  ---------------------------------------------------
  alpha Z        PSCENC =        47.94900195
  Ewald energy   TEWEN  =     44407.38298792
  -Hartree energ DENC   =    -51370.05806103
  -exchange      EXHF   =         0.00000000
  -V(xc)+E(xc)   XCENC  =       442.03010903
  PAW double counting   =    101854.29621228  -101570.67848040
  entropy T*S    EENTRO =        -0.00000000
  eigenvalues    EBANDS =     -2658.93709933
  atomic energy  EATOM  =      8420.94593319
  ---------------------------------------------------
  free energy    TOTEN  =      -427.06939637 eV

  energy without entropy =     -427.06939637  energy(sigma->0) =     -427.06939637


--------------------------------------------------------------------------------------------------------




--------------------------------------- Iteration      1(  27)  ---------------------------------------


    POTLOK:  cpu time    4.3169: real time    4.3556
    SETDIJ:  cpu time    0.0544: real time    0.0547
    TRIAL :  cpu time    1.1568: real time    1.1708
    CORREC:  cpu time    4.7713: real time    4.8171
    EDDIAG:  cpu time    0.4351: real time    0.4398
    CHARGE:  cpu time    0.1773: real time    0.1790
    --------------------------------------------
      LOOP:  cpu time   11.0234: real time   11.1372

 eigenvalue-minimisations  :     0
 total energy-change (2. order) :-0.8934876E-07  (-0.4451965E-07)
 number of electron     216.0000000 magnetization 
 augmentation part       -0.3996282 magnetization 

 Free energy of the ion-electron system (eV)
  ---------------------------------------------------
  alpha Z        PSCENC =        47.94900195
  Ewald energy   TEWEN  =     44407.38298792
  -Hartree energ DENC   =    -51370.05984323
  -exchange      EXHF   =         0.00000000
  -V(xc)+E(xc)   XCENC  =       442.03014684
  PAW double counting   =    101854.18471532  -101570.56699597
  entropy T*S    EENTRO =        -0.00000000
  eigenvalues    EBANDS =     -2658.93534248
  atomic energy  EATOM  =      8420.94593319
  ---------------------------------------------------
  free energy    TOTEN  =      -427.06939645 eV

  energy without entropy =     -427.06939645  energy(sigma->0) =     -427.06939645


--------------------------------------------------------------------------------------------------------


  average scaling for gradient   0.9303


 average (electrostatic) potential at core
  the test charge radii are     0.5770  0.5955
  (the norm of the test charge is              1.0000)
       1 -86.0200       2 -86.0189       3 -86.0214       4 -86.0235       5 -86.0172
       6 -86.0164       7 -86.0211       8 -86.0185       9 -86.0185      10 -86.0208
[...]
      21 -86.0163      22 -86.0159      23 -86.0246      24 -86.0243      25 -86.0161
      26 -86.0169      27 -86.0189      28 -86.0210      29 -86.0164      30 -86.0162
      31 -86.0224      32 -86.0206      33 -86.0176      34 -86.0168      35 -86.0168
      36 -86.0174      37 -86.0187      38 -86.0195      39 -86.0196      40 -86.0192
      41 -86.0193      42 -86.0200      43 -86.0181      44 -86.0201      45 -86.0163
      46 -86.0167      47 -86.0171      48 -86.0165      49 -86.0192      50 -86.0183
      51 -89.9491      52-120.4659      53-120.4657
 
 
 
 E-fermi :  -4.4124     XC(G=0):  -2.1890     alpha+bet : -1.6890

 Fermi energy:        -4.4123927835

 k-point     1 :       0.0000    0.0000    0.0000
  band No.  band energies     occupation 
      1     -27.6775      2.00000
      2     -26.6932      2.00000
      3     -22.4498      2.00000
      4     -21.5144      2.00000
      5     -21.5139      2.00000
      6     -21.5138      2.00000
      7     -21.5124      2.00000
      8     -21.5116      2.00000
      9     -21.5115      2.00000
     10     -19.6773      2.00000
     11     -19.6770      2.00000
     12     -19.6768      2.00000
     13     -19.6764      2.00000
     14     -19.6764      2.00000
     15     -19.6763      2.00000
     16     -18.7831      2.00000
     17     -18.7830      2.00000
     18     -18.7828      2.00000
     19     -18.7822      2.00000
     20     -18.7820      2.00000
     21     -18.7818      2.00000
     22     -16.6235      2.00000
     23     -16.6232      2.00000
     24     -16.6224      2.00000
     25     -16.6222      2.00000
     26     -16.6214      2.00000
     27     -16.6213      2.00000
     28     -15.6519      2.00000
     29     -15.6519      2.00000
     30     -15.6515      2.00000
     31     -15.6514      2.00000
     32     -15.6507      2.00000
     33     -15.6506      2.00000
     34     -14.3042      2.00000
     35     -14.3041      2.00000
     36     -14.3035      2.00000
     37     -14.3033      2.00000
     38     -14.3033      2.00000
     39     -14.3030      2.00000
     40     -12.5271      2.00000
     41     -11.9318      2.00000
     42     -11.9316      2.00000
     43     -11.9311      2.00000
     44     -11.9311      2.00000
     45     -11.9302      2.00000
     46     -11.9299      2.00000
     47     -11.8446      2.00000
     48     -11.8446      2.00000
     49     -11.8440      2.00000
     50     -11.8440      2.00000
     51     -11.8432      2.00000
     52     -11.8430      2.00000
     53     -11.3852      2.00000
     54     -11.3225      2.00000
     55     -11.3218      2.00000
     56     -10.6309      2.00000
     57     -10.4776      2.00000
     58     -10.4774      2.00000
     59     -10.4760      2.00000
     60     -10.4756      2.00000
     61     -10.4755      2.00000
     62     -10.4754      2.00000
     63      -9.5161      2.00000
     64      -9.5149      2.00000
     65      -9.5134      2.00000
     66      -9.5124      2.00000
     67      -9.5108      2.00000
     68      -9.5108      2.00000
     69      -9.2180      2.00000
     70      -9.2174      2.00000
     71      -9.2172      2.00000
     72      -9.2167      2.00000
     73      -9.2162      2.00000
     74      -9.2161      2.00000
     75      -9.1532      2.00000
     76      -9.1531      2.00000
     77      -9.1529      2.00000
     78      -9.1528      2.00000
     79      -9.1522      2.00000
     80      -9.1514      2.00000
     81      -7.7866      2.00000
     82      -7.7859      2.00000
     83      -7.5716      2.00000
     84      -7.5704      2.00000
     85      -7.5701      2.00000
     86      -7.5696      2.00000
     87      -7.5682      2.00000
     88      -7.5681      2.00000
     89      -7.3824      2.00000
     90      -7.3823      2.00000
     91      -7.3822      2.00000
     92      -7.3817      2.00000
     93      -7.3816      2.00000
     94      -7.3813      2.00000
     95      -6.4851      2.00000
     96      -6.4841      2.00000
     97      -6.4837      2.00000
     98      -6.4835      2.00000
     99      -6.4832      2.00000
    100      -6.4827      2.00000
    101      -6.0957      2.00000
    102      -6.0935      2.00000
    103      -4.4990      2.00000
    104      -4.4989      2.00000
    105      -4.4986      2.00000
    106      -4.4982      2.00000
    107      -4.4963      2.00000
    108      -4.4962      2.00000
    109      -1.7044      0.00000
    110      -1.7042      0.00000
    111      -1.7027      0.00000
    112      -1.7024      0.00000
    113      -1.7022      0.00000
    114      -1.7021      0.00000
    115      -0.3262      0.00000
    116       0.1517      0.00000
    117       0.1524      0.00000
    118       0.1530      0.00000
    119       0.1538      0.00000
    120       0.1541      0.00000
    121       0.1562      0.00000
    122       0.2207      0.00000
    123       0.8821      0.00000
    124       0.9485      0.00000
    125       1.0453      0.00000
    126       1.0918      0.00000
    127       1.1386      0.00000
    128       1.1611      0.00000
    129       1.1740      0.00000
    130       1.1932      0.00000
    131       1.4247      0.00000
    132       1.7289      0.00000
    133       1.8514      0.00000
    134       1.9459      0.00000
    135       1.9938      0.00000
    136       2.0162      0.00000


--------------------------------------------------------------------------------------------------------


 soft charge-density along one line, spin component           1
         0         1         2         3         4         5         6         7         8         9
 total charge-density along one line
 
 pseudopotential strength for first ion, spin component:           1
 12.717  21.400   0.000   0.000   0.000   0.000   0.000   0.000
 21.400  36.010   0.000   0.000   0.000   0.000   0.000   0.000
  0.000   0.000  -3.220  -0.000   0.000  -5.771  -0.000   0.000
  0.000   0.000  -0.000  -3.224  -0.000  -0.000  -5.779  -0.000
  0.000   0.000   0.000  -0.000  -3.220   0.000  -0.000  -5.771
  0.000   0.000  -5.771  -0.000   0.000 -10.322  -0.000   0.000
  0.000   0.000  -0.000  -5.779  -0.000  -0.000 -10.335  -0.000
  0.000   0.000   0.000  -0.000  -5.771   0.000  -0.000 -10.322
 total augmentation occupancy for first ion, spin component:           1
  7.415  -2.550  -0.000  -0.002  -0.000   0.000   0.001   0.000
 -2.550   0.916   0.000   0.001  -0.000  -0.000  -0.000  -0.000
 -0.000   0.000   6.889  -0.007   0.000  -2.287   0.003  -0.000
 -0.002   0.001  -0.007   2.993  -0.000   0.003  -0.763   0.000
 -0.000  -0.000   0.000  -0.000   6.889  -0.000   0.000  -2.287
  0.000  -0.000  -2.287   0.003  -0.000   0.775  -0.001   0.000
  0.001  -0.000   0.003  -0.763   0.000  -0.001   0.202  -0.000
  0.000  -0.000  -0.000   0.000  -2.287   0.000  -0.000   0.775


------------------------ aborting loop because EDIFF is reached ----------------------------------------


    FORLOC:  cpu time    0.0677: real time    0.0682
    FORNL :  cpu time    0.8426: real time    0.8472
    FORCOR:  cpu time    4.3917: real time    4.4286
    OFIELD:  cpu time    0.0016: real time    0.0016

 VOLUME and BASIS-vectors are now :
 -----------------------------------------------------------------------------
  energy-cutoff  :     1000.00
  volume of cell :     3288.85
      direct lattice vectors                 reciprocal lattice vectors
    12.325000000  0.000000000  0.000000000     0.081135903  0.046843835  0.000000000
    -6.162500000 10.673763102  0.000000000     0.000000000  0.093687670  0.000000000
     0.000000000  0.000000000 25.000000000     0.000000000  0.000000000  0.040000000

  length of vectors
    12.325000000 12.325000000 25.000000000     0.093687670  0.093687670  0.040000000


 FORCES acting on ions:
    Electron-Ion                     Ewald-Force                    Non-Local-Force
 -----------------------------------------------------------------------------------------------
   0.377E+01 0.327E+01 0.233E+02   -.377E+01 -.327E+01 -.233E+02   0.787E-02 -.107E-02 0.763E-02
   0.548E+01 0.267E+01 0.264E+02   -.549E+01 -.267E+01 -.264E+02   0.876E-02 -.447E-02 -.531E-02
   0.235E+01 0.630E+01 0.285E+02   -.235E+01 -.631E+01 -.286E+02   -.621E-03 0.176E-01 0.582E-02
   0.311E+01 0.450E+01 0.352E+02   -.312E+01 -.451E+01 -.352E+02   0.166E-01 0.321E-02 -.102E-02
   0.402E+01 0.954E+00 0.235E+02   -.402E+01 -.952E+00 -.235E+02   0.229E-02 -.798E-02 0.465E-03
   0.413E+01 -.813E+00 0.238E+02   -.413E+01 0.816E+00 -.238E+02   -.656E-02 0.203E-02 -.723E-02
   0.589E+01 0.215E+01 0.334E+02   -.590E+01 -.215E+01 -.334E+02   0.195E-01 -.227E-01 -.131E-02
   0.571E+01 -.204E+01 0.347E+02   -.572E+01 0.205E+01 -.347E+02   0.441E-03 -.101E-01 -.705E-02
   -.281E+01 0.568E+01 0.287E+02   0.282E+01 -.569E+01 -.287E+02   -.526E-02 -.787E-02 -.641E-02
   -.423E+01 0.356E+01 0.346E+02   0.425E+01 -.357E+01 -.346E+02   -.341E-01 0.206E-01 0.701E-02
   0.105E+01 -.103E+01 0.212E+02   -.104E+01 0.103E+01 -.212E+02   0.208E-02 -.228E-02 -.279E-02
   0.904E+00 -.757E+00 0.205E+02   -.901E+00 0.756E+00 -.205E+02   -.935E-02 0.431E-02 0.370E-02
   0.226E+01 -.485E+01 0.369E+02   -.227E+01 0.486E+01 -.369E+02   0.346E-01 -.136E-01 0.199E-02
   0.128E+01 -.632E+01 0.297E+02   -.129E+01 0.633E+01 -.297E+02   0.881E-02 0.196E-02 -.175E-01
   -.363E+01 0.223E+01 0.229E+02   0.363E+01 -.224E+01 -.229E+02   0.733E-02 -.346E-02 0.265E-02
   -.495E+01 0.147E+01 0.244E+02   0.496E+01 -.147E+01 -.244E+02   -.484E-02 0.780E-02 -.922E-02
   -.644E+00 -.254E+00 0.199E+02   0.650E+00 0.251E+00 -.199E+02   -.306E-02 0.132E-02 0.145E-02
   0.299E+00 0.224E+01 0.205E+02   -.296E+00 -.224E+01 -.205E+02   -.484E-02 0.293E-02 0.920E-02
   -.961E+00 -.593E+01 0.261E+02   0.956E+00 0.593E+01 -.261E+02   0.951E-02 -.478E-02 0.143E-02
   -.509E+00 -.335E+01 0.218E+02   0.503E+00 0.336E+01 -.218E+02   0.255E-02 -.327E-02 -.126E-02
   0.548E+01 -.242E+01 0.276E+02   -.548E+01 0.242E+01 -.275E+02   0.166E-02 -.508E-02 -.226E-01
   0.366E+01 -.304E+01 0.247E+02   -.366E+01 0.304E+01 -.247E+02   -.649E-02 0.534E-02 -.780E-02
   -.109E+01 0.207E+01 0.394E+02   0.109E+01 -.207E+01 -.394E+02   -.136E-01 0.137E-01 0.186E-01
   -.148E+01 -.324E+01 0.388E+02   0.148E+01 0.325E+01 -.388E+02   0.141E-01 -.196E-01 0.576E-02
   0.193E+01 -.765E+00 0.213E+02   -.192E+01 0.763E+00 -.213E+02   0.173E-02 -.184E-02 -.650E-02
   0.437E+00 0.169E+01 0.213E+02   -.434E+00 -.169E+01 -.213E+02   -.766E-02 0.487E-02 0.280E-02
   -.635E+01 0.875E+00 0.301E+02   0.637E+01 -.881E+00 -.301E+02   0.510E-02 0.111E-01 -.290E-02
   -.609E+01 -.242E+01 0.288E+02   0.610E+01 0.242E+01 -.288E+02   -.150E-01 0.112E-01 0.430E-02
   0.217E+01 -.434E+01 0.253E+02   -.217E+01 0.434E+01 -.253E+02   0.793E-02 0.109E-02 -.115E-01
   0.189E+00 -.183E+01 0.221E+02   -.193E+00 0.183E+01 -.221E+02   -.344E-02 0.260E-02 -.564E-02
   -.449E+01 -.469E+01 0.320E+02   0.450E+01 0.470E+01 -.320E+02   -.167E-01 -.109E-01 -.268E-02
   -.305E+01 -.565E+01 0.267E+02   0.306E+01 0.566E+01 -.267E+02   0.676E-03 -.607E-02 0.654E-02
   0.252E+00 0.100E+01 0.204E+02   -.255E+00 -.100E+01 -.204E+02   0.738E-02 -.567E-02 0.537E-02
   0.654E+00 0.983E+00 0.212E+02   -.657E+00 -.981E+00 -.211E+02   -.134E-02 0.372E-02 -.346E-02
   -.254E+01 0.402E+00 0.220E+02   0.254E+01 -.404E+00 -.220E+02   0.379E-02 -.166E-02 0.278E-02
   -.225E+01 -.951E+00 0.217E+02   0.225E+01 0.949E+00 -.217E+02   -.681E-02 0.379E-02 0.156E-02
   -.437E+01 -.227E+01 0.234E+02   0.438E+01 0.227E+01 -.234E+02   -.568E-02 0.158E-02 0.337E-02
   -.277E+01 -.221E+01 0.215E+02   0.277E+01 0.221E+01 -.215E+02   -.661E-02 0.148E-02 0.960E-02
   -.253E+01 -.325E+01 0.223E+02   0.253E+01 0.326E+01 -.223E+02   -.520E-02 -.127E-02 0.660E-02
   -.384E+00 -.837E+00 0.206E+02   0.384E+00 0.838E+00 -.206E+02   0.244E-02 -.311E-03 0.820E-02
   0.949E+00 0.236E+01 0.210E+02   -.949E+00 -.236E+01 -.210E+02   -.448E-02 0.370E-02 0.795E-02
   0.294E+01 0.459E+01 0.238E+02   -.294E+01 -.460E+01 -.238E+02   0.203E-02 0.150E-02 0.106E-01
   0.264E+00 0.399E+01 0.220E+02   -.258E+00 -.400E+01 -.220E+02   -.301E-02 0.374E-02 0.134E-02
   -.730E-01 0.628E+01 0.265E+02   0.793E-01 -.629E+01 -.265E+02   -.122E-01 0.582E-02 0.651E-02
   -.752E+00 0.145E+01 0.219E+02   0.755E+00 -.145E+01 -.219E+02   0.316E-02 -.270E-02 -.215E-02
   -.293E+01 0.362E+01 0.241E+02   0.293E+01 -.362E+01 -.241E+02   -.923E-02 0.203E-02 -.591E-02
   -.647E+00 -.167E+01 0.212E+02   0.644E+00 0.167E+01 -.212E+02   0.875E-02 -.218E-02 0.360E-02
   -.152E+01 0.573E+00 0.205E+02   0.151E+01 -.572E+00 -.205E+02   -.187E-02 0.279E-02 -.557E-02
   0.156E+00 -.105E+01 0.205E+02   -.159E+00 0.105E+01 -.205E+02   0.587E-02 -.383E-02 0.592E-02
   0.165E+01 0.119E+01 0.206E+02   -.166E+01 -.118E+01 -.206E+02   0.265E-02 0.113E-02 0.311E-02
   0.218E-01 0.140E-03 -.316E+03   -.242E-01 0.233E-02 0.316E+03   -.316E-02 0.211E-02 -.791E-02
   -.229E+03 0.156E+03 -.487E+03   0.279E+03 -.190E+03 0.491E+03   -.512E+02 0.348E+02 -.344E+01
   0.229E+03 -.156E+03 -.465E+03   -.279E+03 0.190E+03 0.462E+03   0.512E+02 -.348E+02 0.307E+01
 -----------------------------------------------------------------------------------------------
   -.520E-02 0.123E-01 0.359E+00   0.171E-12 -.142E-12 -.171E-12   0.497E-02 -.123E-01 -.359E+00
 
 
 POSITION                                       TOTAL-FORCE (eV/Angst)
 -----------------------------------------------------------------------------------
     11.98348      0.00342      0.01417         0.002933     -0.001332     -0.000996
     -0.34154      1.42665      0.01100        -0.001760     -0.000074     -0.002966
      2.12355      0.00315      0.01249        -0.001439      0.008944     -0.005584
      2.12326      1.42653      0.00641         0.011530      0.000513     -0.006137
     10.75099      2.13819      0.01213         0.000168     -0.005183      0.000045
     -1.57382      3.56123      0.01110        -0.008218      0.004987     -0.001344
      0.89078      2.13854      0.00548         0.007925     -0.017690      0.003466
      0.89099      3.56147      0.00181        -0.013157     -0.001580      0.012713
      4.58864      0.00346      0.01135         0.004353     -0.016748     -0.002997
      4.58894      1.42623      0.00646        -0.021040      0.011722      0.015171
      9.51854      4.27281      0.01369         0.006803     -0.003332      0.000254
     -2.80632      5.69591      0.01434        -0.006249      0.003295      0.000810
      2.12300      4.27302      0.00000         0.022637     -0.003713      0.021799
      2.12335      5.69594      0.00581        -0.001268      0.010118     -0.002026
      7.05344      0.00333      0.01399         0.008881     -0.004985     -0.000325
      7.05353      1.42635      0.01368        -0.001377      0.004465     -0.003523
      8.28610      6.40752      0.01601         0.003331     -0.001575     -0.000721
     -4.03885      7.83070      0.01636        -0.001950      0.000890     -0.000128
      3.35586      6.40753      0.01007         0.004634      0.000609     -0.001158
      3.35599      7.83072      0.01320        -0.003463      0.000436     -0.000498
     -0.34146      4.27290      0.00723        -0.002241     -0.001002     -0.004051
     -0.34138      5.69591      0.00946        -0.008770      0.005967     -0.000966
      3.35624      2.13791      0.00222        -0.012301      0.010764      0.018980
      3.35573      3.56155      0.00139         0.012747     -0.014202      0.011194
     -1.57395      6.40758      0.01311         0.005899     -0.004118     -0.000526
     -1.57385      7.83068      0.01438        -0.004569      0.003689      0.000099
      5.82093      2.13784      0.01033         0.017151      0.004674     -0.002327
      5.82114      3.56097      0.01156        -0.005210      0.007606     -0.003180
      0.89092      6.40755      0.00907         0.004066      0.002117     -0.002033
      0.89106      7.83068      0.01235        -0.006972      0.003432      0.000410
      4.58871      4.27293      0.00850        -0.011057     -0.005611     -0.009361
      4.58852      5.69606      0.01149         0.001827      0.000088     -0.003543
      9.51845      0.00337      0.01490         0.004521     -0.004568      0.000208
      9.51855      1.42644      0.01438        -0.005067      0.005702     -0.000259
      8.28593      2.13803      0.01453         0.006247     -0.003589      0.000620
      8.28613      3.56115      0.01464        -0.004075      0.001960      0.000026
      7.05356      4.27269      0.01457         0.003441     -0.001008     -0.000423
      7.05362      5.69588      0.01553        -0.002299      0.001342     -0.000106
      5.82112      6.40755      0.01489        -0.002427      0.001786      0.000038
      5.82102      7.83073      0.01579         0.002603      0.000467     -0.000283
      7.05363      8.54227      0.01631        -0.004506      0.000860      0.001102
     -5.27149      9.96549      0.01495        -0.000511     -0.002404     -0.001975
     -2.80638      8.54234      0.01558         0.003463     -0.001871     -0.001040
     -2.80627      9.96553      0.01362        -0.005704     -0.000393     -0.003578
     -0.34149      8.54239      0.01378         0.005806     -0.004503      0.000283
     -0.34138      9.96550      0.01354        -0.005470     -0.000033     -0.001074
      2.12343      8.54232      0.01336         0.005605     -0.001500      0.000815
      2.12354      9.96544      0.01469        -0.005574      0.003971     -0.001800
      4.58846      8.54235      0.01505         0.003526     -0.002798      0.000980
      4.58853      9.96550      0.01517        -0.003235      0.003342      0.000242
      3.04930      2.68154      5.29732        -0.005371      0.004533      0.021376
      4.02070      2.02068      5.36174        -0.587779      0.399494     -0.059756
      2.07767      3.34267      5.23786         0.592963     -0.403962      0.014054
 -----------------------------------------------------------------------------------
    total drift:                               -0.000230      0.000040     -0.000263


--------------------------------------------------------------------------------------------------------



  FREE ENERGIE OF THE ION-ELECTRON SYSTEM (eV)
  ---------------------------------------------------
  free  energy   TOTEN  =      -427.06939645 eV

  energy  without entropy=     -427.06939645  energy(sigma->0) =     -427.06939645
 


--------------------------------------------------------------------------------------------------------


    POTLOK:  cpu time    4.3365: real time    4.3690


--------------------------------------------------------------------------------------------------------


 writing wavefunctions
     LOOP+:  cpu time  289.0702: real time  291.8190
    4ORBIT:  cpu time    0.0000: real time    0.0000

 total amount of memory used by VASP MPI-rank0   100580. kBytes
=======================================================================

   base      :      30000. kBytes
   nonl-proj :       8229. kBytes
   fftplans  :      18352. kBytes
   grid      :      30208. kBytes
   one-center:          6. kBytes
   wavefun   :      13785. kBytes
 
  
  
 General timing and accounting informations for this job:
 ========================================================
  
                  Total CPU time used (sec):      333.554
                            User time (sec):      310.389
                          System time (sec):       23.165
                         Elapsed time (sec):      337.516
  
                   Maximum memory used (kb):      780096.
                   Average memory used (kb):          N/A
  
                          Minor page faults:       423575
                          Major page faults:           98
                 Voluntary context switches:         3790
