 vasp.6.2.1 16May21 (build Nov 06 2021 14:46:37) complex                        
  
 executed on             LinuxIFC date 2025.04.16  19:07:42
 running on  112 total cores
 distrk:  each k-point on  112 cores,    1 groups
 distr:  one band on NCORE=  28 cores,    4 groups


--------------------------------------------------------------------------------------------------------


 INCAR:
   ALGO = Conjugate
   NPAR = 4
   ISMEAR = 0
   SIGMA = 0.01
   PREC = Accurate
   EDIFF = 1E-7
   ENCUT = 1000
   ISIF = 0
   GGA = MK
   LUSE_VDW = .TRUE.
   PARAM1 = 0.1234
   PARAM2 = 0.711357
   ZAB_VDW = -1.8867
   AGGAC = 0.0000
   LASPH = .TRUE.

 POTCAR:    PAW_PBE C_h 06Feb2004                 
 POTCAR:    PAW_PBE O_h 06Feb2004                 
 -----------------------------------------------------------------------------
|                                                                             |
|           W    W    AA    RRRRR   N    N  II  N    N   GGGG   !!!           |
|           W    W   A  A   R    R  NN   N  II  NN   N  G    G  !!!           |
|           W    W  A    A  R    R  N N  N  II  N N  N  G       !!!           |
|           W WW W  AAAAAA  RRRRR   N  N N  II  N  N N  G  GGG   !            |
|           WW  WW  A    A  R   R   N   NN  II  N   NN  G    G                |
|           W    W  A    A  R    R  N    N  II  N    N   GGGG   !!!           |
|                                                                             |
|     For optimal performance we recommend to set                             |
|       NCORE = 2 up to number-of-cores-per-socket                            |
|     NCORE specifies how many cores store one orbital (NPAR=cpu/NCORE).      |
|     This setting can greatly improve the performance of VASP for DFT.       |
|     The default, NCORE=1 might be grossly inefficient on modern             |
|     multi-core architectures or massively parallel machines. Do your        |
|     own testing! More info at https://www.vasp.at/wiki/index.php/NCORE      |
|     Unfortunately you need to use the default for GW and RPA                |
|     calculations (for HF NCORE is supported but not extensively tested      |
|     yet).                                                                   |
|                                                                             |
 -----------------------------------------------------------------------------

 -----------------------------------------------------------------------------
|                                                                             |
|               ----> ADVICE to this user running VASP <----                  |
|                                                                             |
|     You have switched on vdW-DFT.                                           |
|     This routine was written and supplied by Jiri Klimes. We recommend      |
|     that you carefully read and cite the following publications:            |
|       J. Klimes, D.R. Bowler, A. Michelides                                 |
|          J. Phys.: Cond Matt. 22 022201 (2010)                              |
|       J. Klimes, D.R. Bowler, A. Michelides                                 |
|          Phys. Rev. B. 83, 195131 (2011)                                    |
|     and references therein.                                                 |
|                                                                             |
 -----------------------------------------------------------------------------

 POTCAR:    PAW_PBE C_h 06Feb2004                 
   VRHFIN =C: s2p2                                                                                  
   LEXCH  = PE                                                                                      
   EATOM  =   147.1560 eV,   10.8157 Ry                                                             
                                                                                                    
   TITEL  = PAW_PBE C_h 06Feb2004                                                                   
   LULTRA =        F    use ultrasoft PP ?                                                          
   IUNSCR =        1    unscreen: 0-lin 1-nonlin 2-no                                               
   RPACOR =    0.800    partial core radius                                                         
   POMASS =   12.011; ZVAL   =    4.000    mass and valenz                                          
   RCORE  =    1.100    outmost cutoff radius                                                       
   RWIGS  =    1.630; RWIGS  =    0.863    wigner-seitz radius (au A)                               
   ENMAX  =  700.000; ENMIN  =  500.000 eV                                                          
   ICORE  =        2    local potential                                                             
   LCOR   =        T    correct aug charges                                                         
   LPAW   =        T    paw PP                                                                      
   EAUG   =  946.768                                                                                
   DEXC   =    0.000                                                                                
   RMAX   =    1.128    core radius for proj-oper                                                   
   RAUG   =    1.300    factor for augmentation sphere                                              
   RDEP   =    1.162    radius for radial grids                                                     
   RDEPT  =    1.088    core radius for aug-charge                                                  
                                                                                                    
   Atomic configuration                                                                             
    4 entries                                                                                       
     n  l   j            E        occ.                                                              
     1  0  0.50      -273.3789   2.0000                                                             
     2  0  0.50       -13.7508   2.0000                                                             
     2  1  0.50        -5.2854   2.0000                                                             
     3  2  1.50        -5.4423   0.0000                                                             
   Description                                                                                      
     l       E           TYP  RCUT    TYP  RCUT                                                     
     0    -13.7508458     23  1.100                                                                 
     0     -8.2022199     23  1.100                                                                 
     1     -5.2854383     23  1.100                                                                 
     1      1.1560700     23  1.100                                                                 
     2     -5.4423304      7  1.100                                                                 
  local pseudopotential read in
  partial core-charges read in
  partial kinetic energy density read in
  atomic valenz-charges read in
  non local Contribution for L=           0  read in
    real space projection operators read in
  non local Contribution for L=           0  read in
    real space projection operators read in
  non local Contribution for L=           1  read in
    real space projection operators read in
  non local Contribution for L=           1  read in
    real space projection operators read in
    PAW grid and wavefunctions read in
 
   number of l-projection  operators is LMAX  =           4
   number of lm-projection operators is LMMAX =           8
 
 POTCAR:    PAW_PBE O_h 06Feb2004                 
   VRHFIN =O: s2p4                                                                                  
   LEXCH  = PE                                                                                      
   EATOM  =   432.3788 eV,   31.7789 Ry                                                             
                                                                                                    
   TITEL  = PAW_PBE O_h 06Feb2004                                                                   
   LULTRA =        F    use ultrasoft PP ?                                                          
   IUNSCR =        1    unscreen: 0-lin 1-nonlin 2-no                                               
   RPACOR =    0.800    partial core radius                                                         
   POMASS =   16.000; ZVAL   =    6.000    mass and valenz                                          
   RCORE  =    1.100    outmost cutoff radius                                                       
   RWIGS  =    1.400; RWIGS  =    0.741    wigner-seitz radius (au A)                               
   ENMAX  =  700.000; ENMIN  =  500.000 eV                                                          
   ICORE  =        2    local potential                                                             
   LCOR   =        T    correct aug charges                                                         
   LPAW   =        T    paw PP                                                                      
   EAUG   =  888.804                                                                                
   DEXC   =    0.000                                                                                
   RMAX   =    1.128    core radius for proj-oper                                                   
   RAUG   =    1.300    factor for augmentation sphere                                              
   RDEP   =    1.125    radius for radial grids                                                     
   RDEPT  =    1.088    core radius for aug-charge                                                  
                                                                                                    
   Atomic configuration                                                                             
    4 entries                                                                                       
     n  l   j            E        occ.                                                              
     1  0  0.50      -514.6923   2.0000                                                             
     2  0  0.50       -23.9615   2.0000                                                             
     2  1  0.50        -9.0305   4.0000                                                             
     3  2  1.50        -9.5241   0.0000                                                             
   Description                                                                                      
     l       E           TYP  RCUT    TYP  RCUT                                                     
     0    -23.9615319     23  1.100                                                                 
     0    -25.3221145     23  1.100                                                                 
     1     -9.0304911     23  1.100                                                                 
     1     -5.4802209     23  1.100                                                                 
     2     -9.5240782      7  1.100                                                                 
  local pseudopotential read in
  partial core-charges read in
  partial kinetic energy density read in
  atomic valenz-charges read in
  non local Contribution for L=           0  read in
    real space projection operators read in
  non local Contribution for L=           0  read in
    real space projection operators read in
  non local Contribution for L=           1  read in
    real space projection operators read in
  non local Contribution for L=           1  read in
    real space projection operators read in
    PAW grid and wavefunctions read in
 
   number of l-projection  operators is LMAX  =           4
   number of lm-projection operators is LMMAX =           8
 
 -----------------------------------------------------------------------------
|                                                                             |
|               ----> ADVICE to this user running VASP <----                  |
|                                                                             |
|     You have a (more or less) 'large supercell' and for larger cells it     |
|     might be more efficient to use real-space projection operators.         |
|     Therefore, try LREAL= Auto in the INCAR file.                           |
|     Mind: For very accurate calculation, you might also keep the            |
|     reciprocal projection scheme (i.e. LREAL=.FALSE.).                      |
|                                                                             |
 -----------------------------------------------------------------------------

 -----------------------------------------------------------------------------
|                                                                             |
|               ----> ADVICE to this user running VASP <----                  |
|                                                                             |
|     You enforced a specific xc type in the INCAR file but a different       |
|     type was found in the POTCAR file.                                      |
|     I HOPE YOU KNOW WHAT YOU ARE DOING!                                     |
|                                                                             |
 -----------------------------------------------------------------------------

  PAW_PBE C_h 06Feb2004                 :
 energy of atom  1       EATOM= -147.1560
 kinetic energy error for atom=    0.0031 (will be added to EATOM!!)
  PAW_PBE O_h 06Feb2004                 :
 energy of atom  2       EATOM= -432.3788
 kinetic energy error for atom=    0.0171 (will be added to EATOM!!)
 
 
 POSCAR:  C  O
  positions in cartesian coordinates
  No initial velocities read in
 exchange correlation table for  LEXCH =       43
   RHO(1)=    0.500       N(1)  =     2000
   RHO(2)=  100.500       N(2)  =     4000
 


--------------------------------------------------------------------------------------------------------


 ion  position               nearest neighbor table
   1  0.972  0.000  0.001-  50 1.42   2 1.42  42 1.42
   2  0.039  0.134  0.000-   5 1.42   7 1.42   1 1.42
   3  0.172  0.000  0.000-  42 1.42  44 1.42   4 1.42
   4  0.239  0.134  0.000-   7 1.42   3 1.42  23 1.42
   5  0.972  0.200  0.000-   6 1.42   2 1.42  34 1.42
   6  0.039  0.334  0.000-   5 1.42  21 1.42  11 1.42
   7  0.172  0.200  0.000-   8 1.42   2 1.42   4 1.42
   8  0.239  0.334  0.000-  13 1.42   7 1.42  21 1.42
   9  0.372  0.000  0.000-  10 1.42  44 1.42  46 1.42
  10  0.439  0.134  0.000-  27 1.42   9 1.42  23 1.42
  11  0.972  0.400  0.001-  12 1.42  36 1.42   6 1.42
  12  0.039  0.534  0.001-  25 1.42  11 1.42  17 1.42
  13  0.372  0.400  0.000-   8 1.42  14 1.42  24 1.42
  14  0.439  0.534  0.000-  13 1.42  29 1.42  19 1.42
  15  0.572  0.000  0.001-  46 1.42  16 1.42  48 1.42
  16  0.639  0.134  0.001-  15 1.42  35 1.42  27 1.42
  17  0.972  0.600  0.001-  38 1.42  18 1.42  12 1.42
  18  0.039  0.734  0.001-  43 1.42  41 1.42  17 1.42
  19  0.572  0.600  0.000-  14 1.42  20 1.42  32 1.42
  20  0.639  0.734  0.001-  49 1.42  19 1.42  47 1.42
  21  0.172  0.400  0.000-  22 1.42   8 1.42   6 1.42
  22  0.239  0.534  0.000-  21 1.42  29 1.42  25 1.42
  23  0.372  0.200  0.000-  10 1.42   4 1.42  24 1.42
  24  0.439  0.334  0.000-  13 1.42  31 1.42  23 1.42
  25  0.172  0.600  0.001-  26 1.42  12 1.42  22 1.42
  26  0.239  0.734  0.001-  25 1.42  45 1.42  43 1.42
  27  0.572  0.200  0.000-  10 1.42  28 1.42  16 1.42
  28  0.639  0.334  0.000-  27 1.42  37 1.42  31 1.42
  29  0.372  0.600  0.000-  22 1.42  14 1.42  30 1.42
  30  0.439  0.734  0.000-  47 1.42  29 1.42  45 1.42
  31  0.572  0.400  0.000-  32 1.42  28 1.42  24 1.42
  32  0.639  0.534  0.000-  31 1.42  39 1.42  19 1.42
  33  0.772  0.000  0.001-  34 1.42  48 1.42  50 1.42
  34  0.839  0.134  0.001-  33 1.42   5 1.42  35 1.42
  35  0.772  0.200  0.001-  36 1.42  16 1.42  34 1.42
  36  0.839  0.334  0.001-  35 1.42  11 1.42  37 1.42
  37  0.772  0.400  0.001-  28 1.42  38 1.42  36 1.42
  38  0.839  0.534  0.001-  17 1.42  37 1.42  39 1.42
  39  0.772  0.600  0.001-  40 1.42  38 1.42  32 1.42
  40  0.839  0.734  0.001-  39 1.42  49 1.42  41 1.42
  41  0.972  0.800  0.001-  18 1.42  42 1.42  40 1.42
  42  0.039  0.934  0.001-   3 1.42  41 1.42   1 1.42
  43  0.172  0.800  0.001-  18 1.42  44 1.42  26 1.42
  44  0.239  0.934  0.001-   9 1.42  43 1.42   3 1.42
  45  0.372  0.800  0.001-  26 1.42  46 1.42  30 1.42
  46  0.439  0.934  0.001-  15 1.42  45 1.42   9 1.42
  47  0.572  0.800  0.001-  30 1.42  48 1.42  20 1.42
  48  0.639  0.934  0.001-  47 1.42  33 1.42  15 1.42
  49  0.772  0.800  0.001-  50 1.42  20 1.42  40 1.42
  50  0.839  0.934  0.001-  49 1.42   1 1.42  33 1.42
  51  0.373  0.251  0.238-  52 1.18  53 1.18
  52  0.421  0.189  0.240-  51 1.18
  53  0.325  0.313  0.235-  51 1.18
 
  LATTYP: Found a hexagonal cell.
 ALAT       =    12.3250000000
 C/A-ratio  =     2.0283975659
  
  Lattice vectors:
  
 A1 = (  12.3250000000,   0.0000000000,   0.0000000000)
 A2 = (  -6.1625000000,  10.6737631016,   0.0000000000)
 A3 = (   0.0000000000,   0.0000000000,  25.0000000000)


Analysis of symmetry for initial positions (statically):
=====================================================================
 Subroutine PRICEL returns:
 Original cell was already a primitive cell.
 

 Routine SETGRP: Setting up the symmetry group for a 
 hexagonal supercell.


 Subroutine GETGRP returns: Found  1 space group operations
 (whereof  1 operations were pure point group operations)
 out of a pool of 24 trial point group operations.


The static configuration has the point symmetry C_1 .


Analysis of symmetry for dynamics (positions and initial velocities):
=====================================================================
 Subroutine PRICEL returns:
 Original cell was already a primitive cell.
 

 Routine SETGRP: Setting up the symmetry group for a 
 hexagonal supercell.


 Subroutine GETGRP returns: Found  1 space group operations
 (whereof  1 operations were pure point group operations)
 out of a pool of 24 trial point group operations.


The dynamic configuration has the point symmetry C_1 .


 Subroutine INISYM returns: Found  1 space group operations
 (whereof  1 operations are pure point group operations),
 and found     1 'primitive' translations


----------------------------------------------------------------------------------------

                                     Primitive cell                                     

  volume of cell :    3288.8533

  direct lattice vectors                    reciprocal lattice vectors
    12.325000000  0.000000000  0.000000000     0.081135903  0.046843835  0.000000000
    -6.162500000 10.673763102  0.000000000     0.000000000  0.093687670  0.000000000
     0.000000000  0.000000000 25.000000000     0.000000000  0.000000000  0.040000000

  length of vectors
    12.325000000 12.325000000 25.000000000     0.093687670  0.093687670  0.040000000

  position of ions in fractional coordinates (direct lattice)
     0.972450841  0.000320818  0.000566711
     0.039118382  0.133659505  0.000440173
     0.172443627  0.000295449  0.000499628
     0.239096278  0.133647917  0.000256468
     0.972452058  0.200322012  0.000485219
     0.039128360  0.333643771  0.000444150
     0.172451764  0.200354552  0.000219167
     0.239124359  0.333665720  0.000072260
     0.372465565  0.000324403  0.000453913
     0.439137473  0.133619939  0.000258338
     0.972449824  0.400309362  0.000547611
     0.039124981  0.533636789  0.000573410
     0.372416176  0.400329481  0.000000000
     0.439099602  0.533638981  0.000232414
     0.572443676  0.000312125  0.000559580
     0.639110207  0.133631751  0.000547275
     0.972452703  0.600305653  0.000640289
     0.039124495  0.733640359  0.000654513
     0.572433471  0.600306242  0.000402895
     0.639111888  0.733641879  0.000527905
     0.172454630  0.400318228  0.000289045
     0.239120185  0.533636548  0.000378509
     0.372459750  0.200295993  0.000088997
     0.439107096  0.333673419  0.000055762
     0.172452155  0.600311506  0.000524340
     0.239123371  0.733638574  0.000575129
     0.572431082  0.200289171  0.000413296
     0.639112773  0.333618630  0.000462376
     0.372439808  0.600308022  0.000362844
     0.439116090  0.733637858  0.000494190
     0.572469358  0.400320504  0.000339918
     0.639119408  0.533650873  0.000459610
     0.772445723  0.000315427  0.000596161
     0.839116277  0.133640203  0.000575306
     0.772440513  0.200307432  0.000581033
     0.839120241  0.333635728  0.000585467
     0.772446320  0.400298367  0.000582978
     0.839118980  0.533633964  0.000621100
     0.772456143  0.600308173  0.000595712
     0.839115033  0.733643180  0.000631512
     0.972455313  0.800305582  0.000652233
     0.039114714  0.933643289  0.000598051
     0.172457971  0.800312211  0.000623372
     0.239134551  0.933647193  0.000544850
     0.372451396  0.800316674  0.000551399
     0.439124489  0.933644769  0.000541430
     0.572441101  0.800310054  0.000534535
     0.639115067  0.933638985  0.000587644
     0.772445098  0.800313187  0.000602062
     0.839116614  0.933644338  0.000606830
     0.373021009  0.251226878  0.237841423
     0.420879805  0.189313152  0.240418298
     0.325156981  0.313167186  0.235463228

  ion indices of the primitive-cell ions
   primitive index   ion index
                 1           1
                 2           2
                 3           3
                 4           4
                 5           5
                 6           6
                 7           7
                 8           8
                 9           9
                10          10
                11          11
                12          12
                13          13
                14          14
                15          15
                16          16
                17          17
                18          18
                19          19
                20          20
                21          21
                22          22
                23          23
                24          24
                25          25
                26          26
                27          27
                28          28
                29          29
                30          30
                31          31
                32          32
                33          33
                34          34
                35          35
                36          36
                37          37
                38          38
                39          39
                40          40
                41          41
                42          42
                43          43
                44          44
                45          45
                46          46
                47          47
                48          48
                49          49
                50          50
                51          51
                52          52
                53          53

----------------------------------------------------------------------------------------

 
 
 KPOINTS: auto                                    

Automatic generation of k-mesh.
 Grid dimensions read from file:
 generate k-points for:    1    1    1

 Generating k-lattice:

  Cartesian coordinates                     Fractional coordinates (reciprocal lattice)
     0.081135903  0.046843835  0.000000000     1.000000000 -0.000000000  0.000000000
     0.000000000  0.093687670  0.000000000     0.000000000  1.000000000  0.000000000
     0.000000000  0.000000000  0.040000000     0.000000000  0.000000000  1.000000000

  Length of vectors
     0.093687670  0.093687670  0.040000000

  Shift w.r.t. Gamma in fractional coordinates (k-lattice)
     0.000000000  0.000000000  0.000000000

 
 Subroutine IBZKPT returns following result:
 ===========================================
 
 Found      1 irreducible k-points:
 
 Following reciprocal coordinates:
            Coordinates               Weight
  0.000000  0.000000  0.000000      1.000000
 
 Following cartesian coordinates:
            Coordinates               Weight
  0.000000  0.000000  0.000000      1.000000
 


--------------------------------------------------------------------------------------------------------




 Dimension of arrays:
   k-points           NKPTS =      1   k-points in BZ     NKDIM =      1   number of bands    NBANDS=    136
   number of dos      NEDOS =    301   number of ions     NIONS =     53
   non local maximal  LDIM  =      4   non local SUM 2l+1 LMDIM =      8
   total plane-waves  NPLWV = ******
   max r-space proj   IRMAX =      1   max aug-charges    IRDMAX=  10008
   dimension x,y,z NGX =   128 NGY =  128 NGZ =  270
   dimension x,y,z NGXF=   256 NGYF=  256 NGZF=  540
   support grid    NGXF=   256 NGYF=  256 NGZF=  540
   ions per type =              51   2
   NGX,Y,Z   is equivalent  to a cutoff of  17.27, 17.27, 17.95 a.u.
   NGXF,Y,Z  is equivalent  to a cutoff of  34.53, 34.53, 35.91 a.u.

 SYSTEM =  unknown system                          
 POSCAR =   C  O                                   

 Startparameter for this run:
   NWRITE =      2    write-flag & timer
   PREC   = accura    normal or accurate (medium, high low for compatibility)
   ISTART =      0    job   : 0-new  1-cont  2-samecut
   ICHARG =      2    charge: 1-file 2-atom 10-const
   ISPIN  =      1    spin polarized calculation?
   LNONCOLLINEAR =      F non collinear calculations
   LSORBIT =      F    spin-orbit coupling
   INIWAV =      1    electr: 0-lowe 1-rand  2-diag
   LASPH  =      T    aspherical Exc in radial PAW
 Electronic Relaxation 1
   ENCUT  = 1000.0 eV  73.50 Ry    8.57 a.u.  31.78 31.78 64.46*2*pi/ulx,y,z
   ENINI  = 1000.0     initial cutoff
   ENAUG  =  946.8 eV  augmentation charge cutoff
   NELM   =     60;   NELMIN=  2; NELMDL= -5     # of ELM steps 
   EDIFF  = 0.1E-06   stopping-criterion for ELM
   LREAL  =      F    real-space projection
   NLSPLINE    = F    spline interpolate recip. space projectors
   LCOMPAT=      F    compatible to vasp.4.4
   GGA_COMPAT  = T    GGA compatible to vasp.4.4-vasp.4.6
   LMAXPAW     = -100 max onsite density
   LMAXMIX     =    2 max onsite mixed and CHGCAR
   VOSKOWN=      0    Vosko Wilk Nusair interpolation
   ROPT   =    0.00000   0.00000
 Ionic relaxation
   EDIFFG = 0.1E-05   stopping-criterion for IOM
   NSW    =      0    number of steps for IOM
   NBLOCK =      1;   KBLOCK =      1    inner block; outer block 
   IBRION =     -1    ionic relax: 0-MD 1-quasi-New 2-CG
   NFREE  =      0    steps in history (QN), initial steepest desc. (CG)
   ISIF   =      0    stress and relaxation
   IWAVPR =     10    prediction:  0-non 1-charg 2-wave 3-comb
   ISYM   =      2    0-nonsym 1-usesym 2-fastsym
   LCORR  =      T    Harris-Foulkes like correction to forces

   POTIM  = 0.5000    time-step for ionic-motion
   TEIN   =    0.0    initial temperature
   TEBEG  =    0.0;   TEEND  =   0.0 temperature during run
   SMASS  =  -3.00    Nose mass-parameter (am)
   estimated Nose-frequenzy (Omega)   =  0.10E-29 period in steps = 0.13E+47 mass=  -0.347E-26a.u.
   SCALEE = 1.0000    scale energy and forces
   NPACO  =    256;   APACO  = 16.0  distance and # of slots for P.C.
   PSTRESS=    0.0 pullay stress

  Mass of Ions in am
   POMASS =  12.01 16.00
  Ionic Valenz
   ZVAL   =   4.00  6.00
  Atomic Wigner-Seitz radii
   RWIGS  =  -1.00 -1.00
  virtual crystal weights 
   VCA    =   1.00  1.00
   NELECT =     216.0000    total number of electrons
   NUPDOWN=      -1.0000    fix difference up-down

 DOS related values:
   EMIN   =  10.00;   EMAX   =-10.00  energy-range for DOS
   EFERMI =   0.00
   ISMEAR =     0;   SIGMA  =   0.01  broadening in eV -4-tet -1-fermi 0-gaus

 Electronic relaxation 2 (details)
   IALGO  =     58    algorithm
   LDIAG  =      T    sub-space diagonalisation (order eigenvalues)
   LSUBROT=      F    optimize rotation matrix (better conditioning)
   TURBO    =      0    0=normal 1=particle mesh
   IRESTART =      0    0=no restart 2=restart with 2 vectors
   NREBOOT  =      0    no. of reboots
   NMIN     =      0    reboot dimension
   EREF     =   0.00    reference energy to select bands
   IMIX   =      4    mixing-type and parameters
     AMIX     =   0.40;   BMIX     =  1.00
     AMIX_MAG =   1.60;   BMIX_MAG =  1.00
     AMIN     =   0.10
     WC   =   100.;   INIMIX=   1;  MIXPRE=   1;  MAXMIX= -45

 Intra band minimization:
   WEIMIN = 0.0000     energy-eigenvalue tresh-hold
   EBREAK =  0.18E-09  absolut break condition
   DEPER  =   0.30     relativ break condition  

   TIME   =   0.40     timestep for ELM

  volume/ion in A,a.u.               =      62.05       418.76
  Fermi-wavevector in a.u.,A,eV,Ry     =   0.660508  1.248179  5.935820  0.436270
  Thomas-Fermi vector in A             =   1.732977
 
 Write flags
   LWAVE        =      T    write WAVECAR
   LDOWNSAMPLE  =      F    k-point downsampling of WAVECAR
   LCHARG       =      T    write CHGCAR
   LVTOT        =      F    write LOCPOT, total local potential
   LVHAR        =      F    write LOCPOT, Hartree potential only
   LELF         =      F    write electronic localiz. function (ELF)
   LORBIT       =      0    0 simple, 1 ext, 2 COOP (PROOUT), +10 PAW based schemes


 Dipole corrections
   LMONO  =      F    monopole corrections only (constant potential shift)
   LDIPOL =      F    correct potential (dipole corrections)
   IDIPOL =      0    1-x, 2-y, 3-z, 4-all directions 
   EPSILON=  1.0000000 bulk dielectric constant

 Exchange correlation treatment:
   GGA     =    MK    GGA type
   LEXCH   =    43    internal setting for exchange type
   VOSKOWN=      0    Vosko Wilk Nusair interpolation
   LHFCALC =     F    Hartree Fock is set to
   LHFONE  =     F    Hartree Fock one center treatment
   AEXX    =    0.0000 exact exchange contribution

 vdW DFT:
   LUSE_VDW   =     T    switch on vdW DFT
   Zab_VDW    =******    correlation parameter
   PARAM1     =0.1234
   PARAM2     =0.7114
   PARAM3     =0.0000
   -- rVV10 --
   BPARAM     = 6.3000
   CPARAM     = 0.0093

 Linear response parameters
   LEPSILON=     F    determine dielectric tensor
   LRPA    =     F    only Hartree local field effects (RPA)
   LNABLA  =     F    use nabla operator in PAW spheres
   LVEL    =     F    velocity operator in full k-point grid
   LINTERFAST=   F  fast interpolation
   KINTER  =     0    interpolate to denser k-point grid
   CSHIFT  =0.1000    complex shift for real part using Kramers Kronig
   OMEGAMAX=  -1.0    maximum frequency
   DEG_THRESHOLD= 0.2000000E-02 threshold for treating states as degnerate
   RTIME   =   -0.100 relaxation time in fs
  (WPLASMAI=    0.000 imaginary part of plasma frequency in eV, 0.658/RTIME)
   DFIELD  = 0.0000000 0.0000000 0.0000000 field for delta impulse in time
 
 Orbital magnetization related:
   ORBITALMAG=     F  switch on orbital magnetization
   LCHIMAG   =     F  perturbation theory with respect to B field
   DQ        =  0.001000  dq finite difference perturbation B field
   LLRAUG    =     F  two centre corrections for induced B field



--------------------------------------------------------------------------------------------------------


 Static calculation
 charge density and potential will be updated during run
 non-spin polarized calculation
 Conjugate gradient for all bands (Freysoldt, et al. PRB 79, 241103 (2009))
 preconditioned conjugated gradient                                        
 perform sub-space diagonalisation
    before iterative eigenvector-optimisation
 modified Broyden-mixing scheme, WC =      100.0
 initial mixing is a Kerker type mixing with AMIX =  0.4000 and BMIX =      1.0000
 Hartree-type preconditioning will be used
 using additional bands           28
 reciprocal scheme for non local part
 use partial core corrections
 no Harris-corrections to forces 
 use gradient corrections 
 use of overlap-Matrix (Vanderbilt PP)
 Gauss-broadening in eV      SIGMA  =   0.01


--------------------------------------------------------------------------------------------------------


  energy-cutoff  :     1000.00
  volume of cell :     3288.85
      direct lattice vectors                 reciprocal lattice vectors
    12.325000000  0.000000000  0.000000000     0.081135903  0.046843835  0.000000000
    -6.162500000 10.673763102  0.000000000     0.000000000  0.093687670  0.000000000
     0.000000000  0.000000000 25.000000000     0.000000000  0.000000000  0.040000000

  length of vectors
    12.325000000 12.325000000 25.000000000     0.093687670  0.093687670  0.040000000


 
 k-points in units of 2pi/SCALE and weight: auto                                    
   0.00000000  0.00000000  0.00000000       1.000
 
 k-points in reciprocal lattice and weights: auto                                    
   0.00000000  0.00000000  0.00000000       1.000
 
 position of ions in fractional coordinates (direct lattice) 
   0.97245084  0.00032082  0.00056671
   0.03911838  0.13365950  0.00044017
   0.17244363  0.00029545  0.00049963
   0.23909628  0.13364792  0.00025647
   0.97245206  0.20032201  0.00048522
   0.03912836  0.33364377  0.00044415
   0.17245176  0.20035455  0.00021917
   0.23912436  0.33366572  0.00007226
   0.37246557  0.00032440  0.00045391
   0.43913747  0.13361994  0.00025834
   0.97244982  0.40030936  0.00054761
   0.03912498  0.53363679  0.00057341
   0.37241618  0.40032948  0.00000000
   0.43909960  0.53363898  0.00023241
   0.57244368  0.00031213  0.00055958
   0.63911021  0.13363175  0.00054727
   0.97245270  0.60030565  0.00064029
   0.03912449  0.73364036  0.00065451
   0.57243347  0.60030624  0.00040289
   0.63911189  0.73364188  0.00052791
   0.17245463  0.40031823  0.00028904
   0.23912018  0.53363655  0.00037851
   0.37245975  0.20029599  0.00008900
   0.43910710  0.33367342  0.00005576
   0.17245216  0.60031151  0.00052434
   0.23912337  0.73363857  0.00057513
   0.57243108  0.20028917  0.00041330
   0.63911277  0.33361863  0.00046238
   0.37243981  0.60030802  0.00036284
   0.43911609  0.73363786  0.00049419
   0.57246936  0.40032050  0.00033992
   0.63911941  0.53365087  0.00045961
   0.77244572  0.00031543  0.00059616
   0.83911628  0.13364020  0.00057531
   0.77244051  0.20030743  0.00058103
   0.83912024  0.33363573  0.00058547
   0.77244632  0.40029837  0.00058298
   0.83911898  0.53363396  0.00062110
   0.77245614  0.60030817  0.00059571
   0.83911503  0.73364318  0.00063151
   0.97245531  0.80030558  0.00065223
   0.03911471  0.93364329  0.00059805
   0.17245797  0.80031221  0.00062337
   0.23913455  0.93364719  0.00054485
   0.37245140  0.80031667  0.00055140
   0.43912449  0.93364477  0.00054143
   0.57244110  0.80031005  0.00053453
   0.63911507  0.93363899  0.00058764
   0.77244510  0.80031319  0.00060206
   0.83911661  0.93364434  0.00060683
   0.37302101  0.25122688  0.23784142
   0.42087980  0.18931315  0.24041830
   0.32515698  0.31316719  0.23546323
 
 position of ions in cartesian coordinates  (Angst):
  11.98347958  0.00342433  0.01416777
  -0.34154264  1.42664989  0.01100432
   2.12354700  0.00315355  0.01249070
   2.12325634  1.42652621  0.00641170
  10.75098721  2.13818970  0.01213047
  -1.57382270  3.56123457  0.01110375
   0.89078307  2.13853702  0.00547917
   0.89099273  3.56146885  0.00180651
   4.58863896  0.00346260  0.01134782
   4.58893648  1.42622757  0.00645846
   9.51853763  4.27280730  0.01369027
  -2.80632132  5.69591267  0.01433526
   2.12299894  4.27302204  0.00000000
   2.12335237  5.69593607  0.00581036
   7.05344483  0.00333155  0.01398950
   7.05352764  1.42635365  0.01368187
   8.28609598  6.40752033  0.01600723
  -4.03884931  7.83070339  0.01636283
   3.35585531  6.40752662  0.01007237
   3.35598594  7.83071962  0.01319763
  -0.34145776  4.27290193  0.00722612
  -0.34137895  5.69591010  0.00946273
   3.35624236  2.13791198  0.00222492
   3.35573251  3.56155103  0.00139405
  -1.57394684  6.40758280  0.01310850
  -1.57385216  7.83068434  0.01437823
   5.82093107  2.13783916  0.01033241
   5.82114012  3.56096622  0.01155939
   0.89092245  6.40754561  0.00907111
   0.89106251  7.83067670  0.01235474
   4.58870974  4.27292622  0.00849795
   4.58852320  5.69606300  0.01149026
   9.51844972  0.00336679  0.01490402
   9.51855036  1.42644387  0.01438264
   8.28593477  2.13803408  0.01452582
   8.28612680  3.56114872  0.01463668
   7.05356221  4.27268994  0.01457444
   7.05362213  5.69588251  0.01552751
   5.82112285  6.40754723  0.01489279
   5.82101669  7.83073350  0.01578780
   7.05362858  8.54227219  0.01630582
  -5.27148792  9.96548729  0.01495127
  -2.80637951  8.54234295  0.01558431
  -2.80626749  9.96552896  0.01362126
  -0.34148805  8.54239058  0.01378498
  -0.34137657  9.96550309  0.01353576
   2.12342586  8.54231992  0.01336337
   2.12354296  9.96544135  0.01469111
   4.58845581  8.54235337  0.01505154
   4.58852904  9.96549848  0.01517076
   3.04929830  2.68153618  5.94603558
   4.02070129  2.02068374  6.01045744
   2.07766701  3.34267235  5.88658071
 


--------------------------------------------------------------------------------------------------------


 k-point   1 :   0.0000 0.0000 0.0000  plane waves:  236157

 maximum and minimum number of plane-waves per node :      8440     8428

 maximum number of plane-waves:    236157
 maximum index in each direction: 
   IXMAX=   31   IYMAX=   31   IZMAX=   64
   IXMIN=  -31   IYMIN=  -31   IZMIN=  -64


 parallel 3D FFT for wavefunctions:
    minimum data exchange during FFTs selected (reduces bandwidth)
 parallel 3D FFT for charge:
    minimum data exchange during FFTs selected (reduces bandwidth)


 total amount of memory used by VASP MPI-rank0   100580. kBytes
=======================================================================

   base      :      30000. kBytes
   nonl-proj :       8229. kBytes
   fftplans  :      18352. kBytes
   grid      :      30208. kBytes
   one-center:          6. kBytes
   wavefun   :      13785. kBytes
 
     INWAV:  cpu time    0.0000: real time    0.0000
 Broyden mixing: mesh for mixing (old mesh)
   NGX = 63   NGY = 63   NGZ =129
  (NGX  =256   NGY  =256   NGZ  =540)
  gives a total of 512001 points

 initial charge density was supplied:
 charge density of overlapping atoms calculated
 number of electron     216.0000000 magnetization 
 keeping initial charge density in first step


--------------------------------------------------------------------------------------------------------


 Maximum index for augmentation-charges          471 (set IRDMAX)


--------------------------------------------------------------------------------------------------------


 First call to EWALD:  gamma=   0.119
 Maximum number of real-space cells 4x 4x 2
 Maximum number of reciprocal cells 2x 2x 4

    FEWALD:  cpu time    0.0025: real time    0.0025


--------------------------------------- Iteration      1(   1)  ---------------------------------------


vdW kernel read from vdw_kernel.bindat
  0.0000  0.2424  0.5071  0.7962  1.1119  1.4567  1.8333  2.2446  2.6937  3.1842
  3.7199  4.3049  4.9438  5.6415  6.4036  7.2358  8.1446  9.1372 10.2212 11.4050
 12.6979 14.1099 15.6519 17.3360 19.1751 21.1837 23.3773 25.7729 28.3892 31.2465
 34.3669 37.7748 41.4965 45.5611 50.0000
 
    POTLOK:  cpu time    4.5623: real time    4.5980
    SETDIJ:  cpu time    0.0553: real time    0.0555
    TRIAL :  cpu time    2.0852: real time    2.1074
    CORREC:  cpu time    0.0005: real time    0.0005
    --------------------------------------------
      LOOP:  cpu time    6.7093: real time    6.7763

 eigenvalue-minimisations  :   288
 total energy-change (2. order) : 0.2750118E+04  (-0.1020437E+05)
 number of electron     216.0000000 magnetization 
 augmentation part      216.0000000 magnetization 

 Free energy of the ion-electron system (eV)
  ---------------------------------------------------
  alpha Z        PSCENC =        47.94900195
  Ewald energy   TEWEN  =     43620.90154586
  -Hartree energ DENC   =    -49690.08595189
  -exchange      EXHF   =         0.00000000
  -V(xc)+E(xc)   XCENC  =       412.33115326
  PAW double counting   =      6548.36373666    -6261.59511771
  entropy T*S    EENTRO =        -0.00000000
  eigenvalues    EBANDS =      -348.69278605
  atomic energy  EATOM  =      8420.94593319
  ---------------------------------------------------
  free energy    TOTEN  =      2750.11751527 eV

  energy without entropy =     2750.11751527  energy(sigma->0) =     2750.11751527


--------------------------------------------------------------------------------------------------------




--------------------------------------- Iteration      1(   2)  ---------------------------------------


    TRIAL :  cpu time    2.8777: real time    2.9040
    CORREC:  cpu time    0.0001: real time    0.0001
    --------------------------------------------
      LOOP:  cpu time    2.9085: real time    2.9379

 eigenvalue-minimisations  :   448
 total energy-change (2. order) :-0.2319675E+04  (-0.2172591E+04)
 number of electron     216.0000000 magnetization 
 augmentation part      216.0000000 magnetization 

 Free energy of the ion-electron system (eV)
  ---------------------------------------------------
  alpha Z        PSCENC =        47.94900195
  Ewald energy   TEWEN  =     43620.90154586
  -Hartree energ DENC   =    -49690.08595189
  -exchange      EXHF   =         0.00000000
  -V(xc)+E(xc)   XCENC  =       412.33115326
  PAW double counting   =      6548.36373666    -6261.59511771
  entropy T*S    EENTRO =        -0.00000000
  eigenvalues    EBANDS =     -2668.36762402
  atomic energy  EATOM  =      8420.94593319
  ---------------------------------------------------
  free energy    TOTEN  =       430.44267730 eV

  energy without entropy =      430.44267730  energy(sigma->0) =      430.44267730


--------------------------------------------------------------------------------------------------------




--------------------------------------- Iteration      1(   3)  ---------------------------------------


    TRIAL :  cpu time    2.3425: real time    2.3628
    CORREC:  cpu time    0.0001: real time    0.0001
    --------------------------------------------
      LOOP:  cpu time    2.4220: real time    2.4428

 eigenvalue-minimisations  :   344
 total energy-change (2. order) :-0.8127850E+03  (-0.7995608E+03)
 number of electron     216.0000000 magnetization 
 augmentation part      216.0000000 magnetization 

 Free energy of the ion-electron system (eV)
  ---------------------------------------------------
  alpha Z        PSCENC =        47.94900195
  Ewald energy   TEWEN  =     43620.90154586
  -Hartree energ DENC   =    -49690.08595189
  -exchange      EXHF   =         0.00000000
  -V(xc)+E(xc)   XCENC  =       412.33115326
  PAW double counting   =      6548.36373666    -6261.59511771
  entropy T*S    EENTRO =        -0.00000000
  eigenvalues    EBANDS =     -3481.15267220
  atomic energy  EATOM  =      8420.94593319
  ---------------------------------------------------
  free energy    TOTEN  =      -382.34237088 eV

  energy without entropy =     -382.34237088  energy(sigma->0) =     -382.34237088


--------------------------------------------------------------------------------------------------------




--------------------------------------- Iteration      1(   4)  ---------------------------------------


    TRIAL :  cpu time    2.3430: real time    2.3632
    CORREC:  cpu time    0.0001: real time    0.0001
    --------------------------------------------
      LOOP:  cpu time    2.3791: real time    2.3998

 eigenvalue-minimisations  :   344
 total energy-change (2. order) :-0.7573056E+02  (-0.7454341E+02)
 number of electron     216.0000000 magnetization 
 augmentation part      216.0000000 magnetization 

 Free energy of the ion-electron system (eV)
  ---------------------------------------------------
  alpha Z        PSCENC =        47.94900195
  Ewald energy   TEWEN  =     43620.90154586
  -Hartree energ DENC   =    -49690.08595189
  -exchange      EXHF   =         0.00000000
  -V(xc)+E(xc)   XCENC  =       412.33115326
  PAW double counting   =      6548.36373666    -6261.59511771
  entropy T*S    EENTRO =        -0.00000000
  eigenvalues    EBANDS =     -3556.88322753
  atomic energy  EATOM  =      8420.94593319
  ---------------------------------------------------
  free energy    TOTEN  =      -458.07292621 eV

  energy without entropy =     -458.07292621  energy(sigma->0) =     -458.07292621


--------------------------------------------------------------------------------------------------------




--------------------------------------- Iteration      1(   5)  ---------------------------------------


    TRIAL :  cpu time    2.4635: real time    2.4848
    CORREC:  cpu time    0.0000: real time    0.0000
    CHARGE:  cpu time    0.1899: real time    0.1920
    --------------------------------------------
      LOOP:  cpu time    2.7272: real time    2.7512

 eigenvalue-minimisations  :   368
 total energy-change (2. order) :-0.2258602E+01  (-0.2242019E+01)
 number of electron     216.0000000 magnetization 
 augmentation part       -0.2345026 magnetization 

 Free energy of the ion-electron system (eV)
  ---------------------------------------------------
  alpha Z        PSCENC =        47.94900195
  Ewald energy   TEWEN  =     43620.90154586
  -Hartree energ DENC   =    -49690.08595189
  -exchange      EXHF   =         0.00000000
  -V(xc)+E(xc)   XCENC  =       412.33115326
  PAW double counting   =      6548.36373666    -6261.59511771
  entropy T*S    EENTRO =        -0.00000000
  eigenvalues    EBANDS =     -3559.14182932
  atomic energy  EATOM  =      8420.94593319
  ---------------------------------------------------
  free energy    TOTEN  =      -460.33152800 eV

  energy without entropy =     -460.33152800  energy(sigma->0) =     -460.33152800


--------------------------------------------------------------------------------------------------------




--------------------------------------- Iteration      1(   6)  ---------------------------------------


    POTLOK:  cpu time    4.3095: real time    4.3407
    SETDIJ:  cpu time    0.0540: real time    0.0542
    TRIAL :  cpu time    1.1681: real time    1.1790
    CORREC:  cpu time    4.7919: real time    4.8363
    CHARGE:  cpu time    0.1812: real time    0.1830
    --------------------------------------------
      LOOP:  cpu time   10.5593: real time   10.6535

 eigenvalue-minimisations  :     0
 total energy-change (2. order) : 0.5247399E+02  (-0.1644840E+02)
 number of electron     216.0000000 magnetization 
 augmentation part       -0.3325600 magnetization 

 Free energy of the ion-electron system (eV)
  ---------------------------------------------------
  alpha Z        PSCENC =        47.94900195
  Ewald energy   TEWEN  =     43620.90154586
  -Hartree energ DENC   =    -51132.45407966
  -exchange      EXHF   =         0.00000000
  -V(xc)+E(xc)   XCENC  =       460.13236165
  PAW double counting   =     80786.93069818   -80506.58713077
  entropy T*S    EENTRO =        -0.00000000
  eigenvalues    EBANDS =     -2105.67587304
  atomic energy  EATOM  =      8420.94593319
  ---------------------------------------------------
  free energy    TOTEN  =      -407.85754263 eV

  energy without entropy =     -407.85754263  energy(sigma->0) =     -407.85754263


--------------------------------------------------------------------------------------------------------




--------------------------------------- Iteration      1(   7)  ---------------------------------------


    POTLOK:  cpu time    4.2771: real time    4.3067
    SETDIJ:  cpu time    0.0541: real time    0.0543
    TRIAL :  cpu time    1.1612: real time    1.1720
    CORREC:  cpu time    4.7714: real time    4.8072
    CHARGE:  cpu time    0.1787: real time    0.1803
    --------------------------------------------
      LOOP:  cpu time   10.4858: real time   10.5813

 eigenvalue-minimisations  :     0
 total energy-change (2. order) :-0.1650360E+02  (-0.1865107E+01)
 number of electron     216.0000000 magnetization 
 augmentation part       -0.3770222 magnetization 

 Free energy of the ion-electron system (eV)
  ---------------------------------------------------
  alpha Z        PSCENC =        47.94900195
  Ewald energy   TEWEN  =     43620.90154586
  -Hartree energ DENC   =    -50609.45455507
  -exchange      EXHF   =         0.00000000
  -V(xc)+E(xc)   XCENC  =       442.66822657
  PAW double counting   =     95739.72972512   -95456.64064688
  entropy T*S    EENTRO =        -0.00000000
  eigenvalues    EBANDS =     -2630.46037225
  atomic energy  EATOM  =      8420.94593319
  ---------------------------------------------------
  free energy    TOTEN  =      -424.36114152 eV

  energy without entropy =     -424.36114152  energy(sigma->0) =     -424.36114152


--------------------------------------------------------------------------------------------------------




--------------------------------------- Iteration      1(   8)  ---------------------------------------


    POTLOK:  cpu time    4.2793: real time    4.3094
    SETDIJ:  cpu time    0.0542: real time    0.0544
    TRIAL :  cpu time    1.1627: real time    1.1736
    CORREC:  cpu time    4.7522: real time    4.7877
    CHARGE:  cpu time    0.1804: real time    0.1823
    --------------------------------------------
      LOOP:  cpu time   10.4717: real time   10.5642

 eigenvalue-minimisations  :     0
 total energy-change (2. order) :-0.1863392E+01  (-0.5074579E+00)
 number of electron     216.0000000 magnetization 
 augmentation part       -0.3941184 magnetization 

 Free energy of the ion-electron system (eV)
  ---------------------------------------------------
  alpha Z        PSCENC =        47.94900195
  Ewald energy   TEWEN  =     43620.90154586
  -Hartree energ DENC   =    -50580.48324477
  -exchange      EXHF   =         0.00000000
  -V(xc)+E(xc)   XCENC  =       442.17221813
  PAW double counting   =     99677.61180834   -99394.19052647
  entropy T*S    EENTRO =        -0.00000000
  eigenvalues    EBANDS =     -2661.13127023
  atomic energy  EATOM  =      8420.94593319
  ---------------------------------------------------
  free energy    TOTEN  =      -426.22453400 eV

  energy without entropy =     -426.22453400  energy(sigma->0) =     -426.22453400


--------------------------------------------------------------------------------------------------------




--------------------------------------- Iteration      1(   9)  ---------------------------------------


    POTLOK:  cpu time    4.2696: real time    4.3024
    SETDIJ:  cpu time    0.0540: real time    0.0543
    TRIAL :  cpu time    1.1583: real time    1.1717
    CORREC:  cpu time    4.7701: real time    4.8276
    CHARGE:  cpu time    0.1814: real time    0.1831
    --------------------------------------------
      LOOP:  cpu time   10.5075: real time   10.6222

 eigenvalue-minimisations  :     0
 total energy-change (2. order) :-0.5074679E+00  (-0.1877446E+00)
 number of electron     216.0000000 magnetization 
 augmentation part       -0.4021882 magnetization 

 Free energy of the ion-electron system (eV)
  ---------------------------------------------------
  alpha Z        PSCENC =        47.94900195
  Ewald energy   TEWEN  =     43620.90154586
  -Hartree energ DENC   =    -50596.04574759
  -exchange      EXHF   =         0.00000000
  -V(xc)+E(xc)   XCENC  =       442.37325475
  PAW double counting   =    102383.04130554  -102099.47620617
  entropy T*S    EENTRO =        -0.00000000
  eigenvalues    EBANDS =     -2646.42108945
  atomic energy  EATOM  =      8420.94593319
  ---------------------------------------------------
  free energy    TOTEN  =      -426.73200191 eV

  energy without entropy =     -426.73200191  energy(sigma->0) =     -426.73200191


--------------------------------------------------------------------------------------------------------




--------------------------------------- Iteration      1(  10)  ---------------------------------------


    POTLOK:  cpu time    4.2922: real time    4.3223
    SETDIJ:  cpu time    0.0540: real time    0.0542
    TRIAL :  cpu time    1.1619: real time    1.1727
    CORREC:  cpu time    4.7472: real time    4.7869
    CHARGE:  cpu time    0.1810: real time    0.1832
    --------------------------------------------
      LOOP:  cpu time   10.4708: real time   10.5757

 eigenvalue-minimisations  :     0
 total energy-change (2. order) :-0.1872745E+00  (-0.8712782E-01)
 number of electron     216.0000000 magnetization 
 augmentation part       -0.4019948 magnetization 

 Free energy of the ion-electron system (eV)
  ---------------------------------------------------
  alpha Z        PSCENC =        47.94900195
  Ewald energy   TEWEN  =     43620.90154586
  -Hartree energ DENC   =    -50593.91924272
  -exchange      EXHF   =         0.00000000
  -V(xc)+E(xc)   XCENC  =       442.22658291
  PAW double counting   =    102955.15107455  -102671.49147324
  entropy T*S    EENTRO =        -0.00000000
  eigenvalues    EBANDS =     -2648.68269895
  atomic energy  EATOM  =      8420.94593319
  ---------------------------------------------------
  free energy    TOTEN  =      -426.91927644 eV

  energy without entropy =     -426.91927644  energy(sigma->0) =     -426.91927644


--------------------------------------------------------------------------------------------------------




--------------------------------------- Iteration      1(  11)  ---------------------------------------


    POTLOK:  cpu time    4.2702: real time    4.3002
    SETDIJ:  cpu time    0.0542: real time    0.0544
    TRIAL :  cpu time    1.1620: real time    1.1725
    CORREC:  cpu time    4.7945: real time    4.8317
    CHARGE:  cpu time    0.1824: real time    0.1842
    --------------------------------------------
      LOOP:  cpu time   10.5026: real time   10.5953

 eigenvalue-minimisations  :     0
 total energy-change (2. order) :-0.8670433E-01  (-0.3604500E-01)
 number of electron     216.0000000 magnetization 
 augmentation part       -0.4009843 magnetization 

 Free energy of the ion-electron system (eV)
  ---------------------------------------------------
  alpha Z        PSCENC =        47.94900195
  Ewald energy   TEWEN  =     43620.90154586
  -Hartree energ DENC   =    -50586.73232362
  -exchange      EXHF   =         0.00000000
  -V(xc)+E(xc)   XCENC  =       442.12414994
  PAW double counting   =    102509.25122443  -102225.59422164
  entropy T*S    EENTRO =        -0.00000000
  eigenvalues    EBANDS =     -2655.85129088
  atomic energy  EATOM  =      8420.94593319
  ---------------------------------------------------
  free energy    TOTEN  =      -427.00598077 eV

  energy without entropy =     -427.00598077  energy(sigma->0) =     -427.00598077


--------------------------------------------------------------------------------------------------------




--------------------------------------- Iteration      1(  12)  ---------------------------------------


    POTLOK:  cpu time    4.2666: real time    4.2978
    SETDIJ:  cpu time    0.0540: real time    0.0547
    TRIAL :  cpu time    1.1780: real time    1.1895
    CORREC:  cpu time    4.7569: real time    4.7920
    CHARGE:  cpu time    0.1812: real time    0.1830
    --------------------------------------------
      LOOP:  cpu time   10.4858: real time   10.5911

 eigenvalue-minimisations  :     0
 total energy-change (2. order) :-0.3592392E-01  (-0.1154524E-01)
 number of electron     216.0000000 magnetization 
 augmentation part       -0.4007591 magnetization 

 Free energy of the ion-electron system (eV)
  ---------------------------------------------------
  alpha Z        PSCENC =        47.94900195
  Ewald energy   TEWEN  =     43620.90154586
  -Hartree energ DENC   =    -50583.37014902
  -exchange      EXHF   =         0.00000000
  -V(xc)+E(xc)   XCENC  =       442.04778478
  PAW double counting   =    102120.01169980  -101836.37761274
  entropy T*S    EENTRO =        -0.00000000
  eigenvalues    EBANDS =     -2659.15010850
  atomic energy  EATOM  =      8420.94593319
  ---------------------------------------------------
  free energy    TOTEN  =      -427.04190469 eV

  energy without entropy =     -427.04190469  energy(sigma->0) =     -427.04190469


--------------------------------------------------------------------------------------------------------




--------------------------------------- Iteration      1(  13)  ---------------------------------------


    POTLOK:  cpu time    4.2836: real time    4.3137
    SETDIJ:  cpu time    0.0540: real time    0.0542
    TRIAL :  cpu time    1.1633: real time    1.1742
    CORREC:  cpu time    4.7394: real time    4.7755
    CHARGE:  cpu time    0.1815: real time    0.1833
    --------------------------------------------
      LOOP:  cpu time   10.4865: real time   10.5701

 eigenvalue-minimisations  :     0
 total energy-change (2. order) :-0.1153599E-01  (-0.3286741E-02)
 number of electron     216.0000000 magnetization 
 augmentation part       -0.4001364 magnetization 

 Free energy of the ion-electron system (eV)
  ---------------------------------------------------
  alpha Z        PSCENC =        47.94900195
  Ewald energy   TEWEN  =     43620.90154586
  -Hartree energ DENC   =    -50583.33321998
  -exchange      EXHF   =         0.00000000
  -V(xc)+E(xc)   XCENC  =       442.03645710
  PAW double counting   =    101955.93611664  -101672.31497322
  entropy T*S    EENTRO =        -0.00000000
  eigenvalues    EBANDS =     -2659.17430222
  atomic energy  EATOM  =      8420.94593319
  ---------------------------------------------------
  free energy    TOTEN  =      -427.05344068 eV

  energy without entropy =     -427.05344068  energy(sigma->0) =     -427.05344068


--------------------------------------------------------------------------------------------------------




--------------------------------------- Iteration      1(  14)  ---------------------------------------


    POTLOK:  cpu time    4.2912: real time    4.3264
    SETDIJ:  cpu time    0.0540: real time    0.0542
    TRIAL :  cpu time    1.1723: real time    1.1833
    CORREC:  cpu time    4.7479: real time    4.7894
    CHARGE:  cpu time    0.1805: real time    0.1828
    --------------------------------------------
      LOOP:  cpu time   10.4942: real time   10.5850

 eigenvalue-minimisations  :     0
 total energy-change (2. order) :-0.3288634E-02  (-0.1134245E-02)
 number of electron     216.0000000 magnetization 
 augmentation part       -0.3998420 magnetization 

 Free energy of the ion-electron system (eV)
  ---------------------------------------------------
  alpha Z        PSCENC =        47.94900195
  Ewald energy   TEWEN  =     43620.90154586
  -Hartree energ DENC   =    -50583.41717942
  -exchange      EXHF   =         0.00000000
  -V(xc)+E(xc)   XCENC  =       442.03705117
  PAW double counting   =    101944.52710057  -101660.91118594
  entropy T*S    EENTRO =        -0.00000000
  eigenvalues    EBANDS =     -2659.08899671
  atomic energy  EATOM  =      8420.94593319
  ---------------------------------------------------
  free energy    TOTEN  =      -427.05672931 eV

  energy without entropy =     -427.05672931  energy(sigma->0) =     -427.05672931


--------------------------------------------------------------------------------------------------------




--------------------------------------- Iteration      1(  15)  ---------------------------------------


    POTLOK:  cpu time    4.3020: real time    4.3360
    SETDIJ:  cpu time    0.0538: real time    0.0542
    TRIAL :  cpu time    1.1650: real time    1.1767
    CORREC:  cpu time    4.7382: real time    4.7733
    CHARGE:  cpu time    0.1810: real time    0.1828
    --------------------------------------------
      LOOP:  cpu time   10.5206: real time   10.6081

 eigenvalue-minimisations  :     0
 total energy-change (2. order) :-0.1136503E-02  (-0.5559495E-03)
 number of electron     216.0000000 magnetization 
 augmentation part       -0.3994251 magnetization 

 Free energy of the ion-electron system (eV)
  ---------------------------------------------------
  alpha Z        PSCENC =        47.94900195
  Ewald energy   TEWEN  =     43620.90154586
  -Hartree energ DENC   =    -50583.03882889
  -exchange      EXHF   =         0.00000000
  -V(xc)+E(xc)   XCENC  =       442.01708232
  PAW double counting   =    101945.36326644  -101661.74563817
  entropy T*S    EENTRO =        -0.00000000
  eigenvalues    EBANDS =     -2659.45022852
  atomic energy  EATOM  =      8420.94593319
  ---------------------------------------------------
  free energy    TOTEN  =      -427.05786581 eV

  energy without entropy =     -427.05786581  energy(sigma->0) =     -427.05786581


--------------------------------------------------------------------------------------------------------




--------------------------------------- Iteration      1(  16)  ---------------------------------------


    POTLOK:  cpu time    4.2629: real time    4.2924
    SETDIJ:  cpu time    0.0542: real time    0.0544
    TRIAL :  cpu time    1.1612: real time    1.1738
    CORREC:  cpu time    4.7322: real time    4.7779
    CHARGE:  cpu time    0.1821: real time    0.1844
    --------------------------------------------
      LOOP:  cpu time   10.4540: real time   10.5448

 eigenvalue-minimisations  :     0
 total energy-change (2. order) :-0.5573909E-03  (-0.2848895E-03)
 number of electron     216.0000000 magnetization 
 augmentation part       -0.3992988 magnetization 

 Free energy of the ion-electron system (eV)
  ---------------------------------------------------
  alpha Z        PSCENC =        47.94900195
  Ewald energy   TEWEN  =     43620.90154586
  -Hartree energ DENC   =    -50583.42838948
  -exchange      EXHF   =         0.00000000
  -V(xc)+E(xc)   XCENC  =       442.03069112
  PAW double counting   =    101896.11806933  -101612.50239038
  entropy T*S    EENTRO =        -0.00000000
  eigenvalues    EBANDS =     -2659.07288479
  atomic energy  EATOM  =      8420.94593319
  ---------------------------------------------------
  free energy    TOTEN  =      -427.05842320 eV

  energy without entropy =     -427.05842320  energy(sigma->0) =     -427.05842320


--------------------------------------------------------------------------------------------------------




--------------------------------------- Iteration      1(  17)  ---------------------------------------


    POTLOK:  cpu time    4.2730: real time    4.3035
    SETDIJ:  cpu time    0.0545: real time    0.0547
    TRIAL :  cpu time    1.1619: real time    1.1729
    CORREC:  cpu time    4.7582: real time    4.7946
    CHARGE:  cpu time    0.1809: real time    0.1826
    --------------------------------------------
      LOOP:  cpu time   10.4881: real time   10.5786

 eigenvalue-minimisations  :     0
 total energy-change (2. order) :-0.2859315E-03  (-0.1155529E-03)
 number of electron     216.0000000 magnetization 
 augmentation part       -0.3993628 magnetization 

 Free energy of the ion-electron system (eV)
  ---------------------------------------------------
  alpha Z        PSCENC =        47.94900195
  Ewald energy   TEWEN  =     43620.90154586
  -Hartree energ DENC   =    -50583.62753184
  -exchange      EXHF   =         0.00000000
  -V(xc)+E(xc)   XCENC  =       442.03440724
  PAW double counting   =    101843.29799242  -101559.68179839
  entropy T*S    EENTRO =        -0.00000000
  eigenvalues    EBANDS =     -2658.87825957
  atomic energy  EATOM  =      8420.94593319
  ---------------------------------------------------
  free energy    TOTEN  =      -427.05870914 eV

  energy without entropy =     -427.05870914  energy(sigma->0) =     -427.05870914


--------------------------------------------------------------------------------------------------------




--------------------------------------- Iteration      1(  18)  ---------------------------------------


    POTLOK:  cpu time    4.2784: real time    4.3096
    SETDIJ:  cpu time    0.0541: real time    0.0543
    TRIAL :  cpu time    1.1640: real time    1.1762
    CORREC:  cpu time    4.7424: real time    4.7800
    CHARGE:  cpu time    0.1801: real time    0.1825
    --------------------------------------------
      LOOP:  cpu time   10.5147: real time   10.6141

 eigenvalue-minimisations  :     0
 total energy-change (2. order) :-0.1155954E-03  (-0.4212186E-04)
 number of electron     216.0000000 magnetization 
 augmentation part       -0.3995109 magnetization 

 Free energy of the ion-electron system (eV)
  ---------------------------------------------------
  alpha Z        PSCENC =        47.94900195
  Ewald energy   TEWEN  =     43620.90154586
  -Hartree energ DENC   =    -50583.67443616
  -exchange      EXHF   =         0.00000000
  -V(xc)+E(xc)   XCENC  =       442.03593185
  PAW double counting   =    101832.80486669  -101549.18796172
  entropy T*S    EENTRO =        -0.00000000
  eigenvalues    EBANDS =     -2658.83370639
  atomic energy  EATOM  =      8420.94593319
  ---------------------------------------------------
  free energy    TOTEN  =      -427.05882473 eV

  energy without entropy =     -427.05882473  energy(sigma->0) =     -427.05882473


--------------------------------------------------------------------------------------------------------




--------------------------------------- Iteration      1(  19)  ---------------------------------------


    POTLOK:  cpu time    4.2651: real time    4.2988
    SETDIJ:  cpu time    0.0539: real time    0.0541
    TRIAL :  cpu time    1.1611: real time    1.1719
    CORREC:  cpu time    4.7763: real time    4.8122
    CHARGE:  cpu time    0.1817: real time    0.1834
    --------------------------------------------
      LOOP:  cpu time   10.4840: real time   10.5681

 eigenvalue-minimisations  :     0
 total energy-change (2. order) :-0.4183294E-04  (-0.1599889E-04)
 number of electron     216.0000000 magnetization 
 augmentation part       -0.3996009 magnetization 

 Free energy of the ion-electron system (eV)
  ---------------------------------------------------
  alpha Z        PSCENC =        47.94900195
  Ewald energy   TEWEN  =     43620.90154586
  -Hartree energ DENC   =    -50583.67314516
  -exchange      EXHF   =         0.00000000
  -V(xc)+E(xc)   XCENC  =       442.03568773
  PAW double counting   =    101844.18411423  -101560.56656073
  entropy T*S    EENTRO =        -0.00000000
  eigenvalues    EBANDS =     -2658.83544364
  atomic energy  EATOM  =      8420.94593319
  ---------------------------------------------------
  free energy    TOTEN  =      -427.05886656 eV

  energy without entropy =     -427.05886656  energy(sigma->0) =     -427.05886656


--------------------------------------------------------------------------------------------------------




--------------------------------------- Iteration      1(  20)  ---------------------------------------


    POTLOK:  cpu time    4.2563: real time    4.2870
    SETDIJ:  cpu time    0.0541: real time    0.0543
    TRIAL :  cpu time    1.1653: real time    1.1763
    CORREC:  cpu time    4.7469: real time    4.7831
    CHARGE:  cpu time    0.1870: real time    0.1888
    --------------------------------------------
      LOOP:  cpu time   10.5069: real time   10.5910

 eigenvalue-minimisations  :     0
 total energy-change (2. order) :-0.1565403E-04  (-0.7265867E-05)
 number of electron     216.0000000 magnetization 
 augmentation part       -0.3996293 magnetization 

 Free energy of the ion-electron system (eV)
  ---------------------------------------------------
  alpha Z        PSCENC =        47.94900195
  Ewald energy   TEWEN  =     43620.90154586
  -Hartree energ DENC   =    -50583.68289083
  -exchange      EXHF   =         0.00000000
  -V(xc)+E(xc)   XCENC  =       442.03606030
  PAW double counting   =    101855.17602091  -101571.55838442
  entropy T*S    EENTRO =        -0.00000000
  eigenvalues    EBANDS =     -2658.82616919
  atomic energy  EATOM  =      8420.94593319
  ---------------------------------------------------
  free energy    TOTEN  =      -427.05888222 eV

  energy without entropy =     -427.05888222  energy(sigma->0) =     -427.05888222


--------------------------------------------------------------------------------------------------------




--------------------------------------- Iteration      1(  21)  ---------------------------------------


    POTLOK:  cpu time    4.2953: real time    4.3256
    SETDIJ:  cpu time    0.0541: real time    0.0542
    TRIAL :  cpu time    1.1529: real time    1.1636
    CORREC:  cpu time    4.7482: real time    4.7861
    CHARGE:  cpu time    0.1817: real time    0.1835
    --------------------------------------------
      LOOP:  cpu time   10.5129: real time   10.6034

 eigenvalue-minimisations  :     0
 total energy-change (2. order) :-0.7139548E-05  (-0.3722360E-05)
 number of electron     216.0000000 magnetization 
 augmentation part       -0.3996225 magnetization 

 Free energy of the ion-electron system (eV)
  ---------------------------------------------------
  alpha Z        PSCENC =        47.94900195
  Ewald energy   TEWEN  =     43620.90154586
  -Hartree energ DENC   =    -50583.66459503
  -exchange      EXHF   =         0.00000000
  -V(xc)+E(xc)   XCENC  =       442.03551032
  PAW double counting   =    101859.84991726  -101576.23235426
  entropy T*S    EENTRO =        -0.00000000
  eigenvalues    EBANDS =     -2658.84384864
  atomic energy  EATOM  =      8420.94593319
  ---------------------------------------------------
  free energy    TOTEN  =      -427.05888936 eV

  energy without entropy =     -427.05888936  energy(sigma->0) =     -427.05888936


--------------------------------------------------------------------------------------------------------




--------------------------------------- Iteration      1(  22)  ---------------------------------------


    POTLOK:  cpu time    4.2682: real time    4.2982
    SETDIJ:  cpu time    0.0542: real time    0.0544
    TRIAL :  cpu time    1.1615: real time    1.1724
    CORREC:  cpu time    4.7379: real time    4.7743
    CHARGE:  cpu time    0.1819: real time    0.1837
    --------------------------------------------
      LOOP:  cpu time   10.4482: real time   10.5356

 eigenvalue-minimisations  :     0
 total energy-change (2. order) :-0.3709516E-05  (-0.1821079E-05)
 number of electron     216.0000000 magnetization 
 augmentation part       -0.3996044 magnetization 

 Free energy of the ion-electron system (eV)
  ---------------------------------------------------
  alpha Z        PSCENC =        47.94900195
  Ewald energy   TEWEN  =     43620.90154586
  -Hartree energ DENC   =    -50583.64713218
  -exchange      EXHF   =         0.00000000
  -V(xc)+E(xc)   XCENC  =       442.03494434
  PAW double counting   =    101859.86543806  -101576.24797516
  entropy T*S    EENTRO =        -0.00000000
  eigenvalues    EBANDS =     -2658.86064913
  atomic energy  EATOM  =      8420.94593319
  ---------------------------------------------------
  free energy    TOTEN  =      -427.05889307 eV

  energy without entropy =     -427.05889307  energy(sigma->0) =     -427.05889307


--------------------------------------------------------------------------------------------------------




--------------------------------------- Iteration      1(  23)  ---------------------------------------


    POTLOK:  cpu time    4.2576: real time    4.2889
    SETDIJ:  cpu time    0.0541: real time    0.0543
    TRIAL :  cpu time    1.1590: real time    1.1726
    CORREC:  cpu time    4.7607: real time    4.8053
    CHARGE:  cpu time    0.1822: real time    0.1843
    --------------------------------------------
      LOOP:  cpu time   10.4594: real time   10.5538

 eigenvalue-minimisations  :     0
 total energy-change (2. order) :-0.1836117E-05  (-0.6454203E-06)
 number of electron     216.0000000 magnetization 
 augmentation part       -0.3995990 magnetization 

 Free energy of the ion-electron system (eV)
  ---------------------------------------------------
  alpha Z        PSCENC =        47.94900195
  Ewald energy   TEWEN  =     43620.90154586
  -Hartree energ DENC   =    -50583.64484583
  -exchange      EXHF   =         0.00000000
  -V(xc)+E(xc)   XCENC  =       442.03495624
  PAW double counting   =    101858.29844472  -101574.68107257
  entropy T*S    EENTRO =        -0.00000000
  eigenvalues    EBANDS =     -2658.86285847
  atomic energy  EATOM  =      8420.94593319
  ---------------------------------------------------
  free energy    TOTEN  =      -427.05889490 eV

  energy without entropy =     -427.05889490  energy(sigma->0) =     -427.05889490


--------------------------------------------------------------------------------------------------------




--------------------------------------- Iteration      1(  24)  ---------------------------------------


    POTLOK:  cpu time    4.3055: real time    4.3422
    SETDIJ:  cpu time    0.0540: real time    0.0542
    TRIAL :  cpu time    1.1606: real time    1.1740
    CORREC:  cpu time    4.7476: real time    4.7908
    CHARGE:  cpu time    0.1802: real time    0.1821
    --------------------------------------------
      LOOP:  cpu time   10.4957: real time   10.6159

 eigenvalue-minimisations  :     0
 total energy-change (2. order) :-0.6580231E-06  (-0.2575289E-06)
 number of electron     216.0000000 magnetization 
 augmentation part       -0.3995978 magnetization 

 Free energy of the ion-electron system (eV)
  ---------------------------------------------------
  alpha Z        PSCENC =        47.94900195
  Ewald energy   TEWEN  =     43620.90154586
  -Hartree energ DENC   =    -50583.64091187
  -exchange      EXHF   =         0.00000000
  -V(xc)+E(xc)   XCENC  =       442.03491393
  PAW double counting   =    101857.63471155  -101574.01731975
  entropy T*S    EENTRO =        -0.00000000
  eigenvalues    EBANDS =     -2658.86677042
  atomic energy  EATOM  =      8420.94593319
  ---------------------------------------------------
  free energy    TOTEN  =      -427.05889556 eV

  energy without entropy =     -427.05889556  energy(sigma->0) =     -427.05889556


--------------------------------------------------------------------------------------------------------




--------------------------------------- Iteration      1(  25)  ---------------------------------------


    POTLOK:  cpu time    4.2492: real time    4.2856
    SETDIJ:  cpu time    0.0539: real time    0.0541
    TRIAL :  cpu time    1.1575: real time    1.1708
    CORREC:  cpu time    4.7496: real time    4.7925
    CHARGE:  cpu time    0.1810: real time    0.1829
    --------------------------------------------
      LOOP:  cpu time   10.4886: real time   10.5857

 eigenvalue-minimisations  :     0
 total energy-change (2. order) :-0.2636225E-06  (-0.1148628E-06)
 number of electron     216.0000000 magnetization 
 augmentation part       -0.3995969 magnetization 

 Free energy of the ion-electron system (eV)
  ---------------------------------------------------
  alpha Z        PSCENC =        47.94900195
  Ewald energy   TEWEN  =     43620.90154586
  -Hartree energ DENC   =    -50583.64043417
  -exchange      EXHF   =         0.00000000
  -V(xc)+E(xc)   XCENC  =       442.03495132
  PAW double counting   =    101857.52943668  -101573.91201757
  entropy T*S    EENTRO =        -0.00000000
  eigenvalues    EBANDS =     -2658.86731309
  atomic energy  EATOM  =      8420.94593319
  ---------------------------------------------------
  free energy    TOTEN  =      -427.05889583 eV

  energy without entropy =     -427.05889583  energy(sigma->0) =     -427.05889583


--------------------------------------------------------------------------------------------------------




--------------------------------------- Iteration      1(  26)  ---------------------------------------


    POTLOK:  cpu time    4.2582: real time    4.3004
    SETDIJ:  cpu time    0.0542: real time    0.0544
    TRIAL :  cpu time    1.1575: real time    1.1702
    CORREC:  cpu time    4.7803: real time    4.8190
    CHARGE:  cpu time    0.1812: real time    0.1829
    --------------------------------------------
      LOOP:  cpu time   10.4466: real time   10.5658

 eigenvalue-minimisations  :     0
 total energy-change (2. order) :-0.1187145E-06  (-0.5222949E-07)
 number of electron     216.0000000 magnetization 
 augmentation part       -0.3995955 magnetization 

 Free energy of the ion-electron system (eV)
  ---------------------------------------------------
  alpha Z        PSCENC =        47.94900195
  Ewald energy   TEWEN  =     43620.90154586
  -Hartree energ DENC   =    -50583.64206755
  -exchange      EXHF   =         0.00000000
  -V(xc)+E(xc)   XCENC  =       442.03498920
  PAW double counting   =    101857.47041038  -101573.85297563
  entropy T*S    EENTRO =        -0.00000000
  eigenvalues    EBANDS =     -2658.86573334
  atomic energy  EATOM  =      8420.94593319
  ---------------------------------------------------
  free energy    TOTEN  =      -427.05889594 eV

  energy without entropy =     -427.05889594  energy(sigma->0) =     -427.05889594


--------------------------------------------------------------------------------------------------------




--------------------------------------- Iteration      1(  27)  ---------------------------------------


    POTLOK:  cpu time    4.2651: real time    4.2947
    SETDIJ:  cpu time    0.0540: real time    0.0542
    TRIAL :  cpu time    1.1629: real time    1.1736
    CORREC:  cpu time    4.7810: real time    4.8167
    EDDIAG:  cpu time    0.4379: real time    0.4427
    CHARGE:  cpu time    0.1792: real time    0.1810
    --------------------------------------------
      LOOP:  cpu time   10.9211: real time   11.0308

 eigenvalue-minimisations  :     0
 total energy-change (2. order) :-0.5382753E-07  (-0.2647420E-07)
 number of electron     216.0000000 magnetization 
 augmentation part       -0.3995942 magnetization 

 Free energy of the ion-electron system (eV)
  ---------------------------------------------------
  alpha Z        PSCENC =        47.94900195
  Ewald energy   TEWEN  =     43620.90154586
  -Hartree energ DENC   =    -50583.64325800
  -exchange      EXHF   =         0.00000000
  -V(xc)+E(xc)   XCENC  =       442.03501090
  PAW double counting   =    101857.38047945  -101573.76304570
  entropy T*S    EENTRO =        -0.00000000
  eigenvalues    EBANDS =     -2658.86456365
  atomic energy  EATOM  =      8420.94593319
  ---------------------------------------------------
  free energy    TOTEN  =      -427.05889600 eV

  energy without entropy =     -427.05889600  energy(sigma->0) =     -427.05889600


--------------------------------------------------------------------------------------------------------


  average scaling for gradient   0.8961


 average (electrostatic) potential at core
  the test charge radii are     0.5770  0.5955
  (the norm of the test charge is              1.0000)
       1 -86.0195       2 -86.0186       3 -86.0203       4 -86.0216       5 -86.0174
       6 -86.0169       7 -86.0201       8 -86.0181       9 -86.0183      10 -86.0197
[...]
      21 -86.0168      22 -86.0165      23 -86.0223      24 -86.0222      25 -86.0166
      26 -86.0171      27 -86.0186      28 -86.0201      29 -86.0168      30 -86.0167
      31 -86.0209      32 -86.0197      33 -86.0176      34 -86.0171      35 -86.0172
      36 -86.0175      37 -86.0185      38 -86.0191      39 -86.0191      40 -86.0189
      41 -86.0190      42 -86.0194      43 -86.0181      44 -86.0195      45 -86.0168
      46 -86.0171      47 -86.0173      48 -86.0169      49 -86.0189      50 -86.0182
      51 -89.9469      52-120.4634      53-120.4630
 
 
 
 E-fermi :  -4.4159     XC(G=0):  -2.1996     alpha+bet : -1.6890

 Fermi energy:        -4.4159383754

 k-point     1 :       0.0000    0.0000    0.0000
  band No.  band energies     occupation 
      1     -27.6758      2.00000
      2     -26.6915      2.00000
      3     -22.4496      2.00000
      4     -21.5139      2.00000
      5     -21.5134      2.00000
      6     -21.5132      2.00000
      7     -21.5122      2.00000
      8     -21.5119      2.00000
      9     -21.5118      2.00000
     10     -19.6771      2.00000
     11     -19.6770      2.00000
     12     -19.6768      2.00000
     13     -19.6762      2.00000
     14     -19.6760      2.00000
     15     -19.6758      2.00000
     16     -18.7830      2.00000
     17     -18.7829      2.00000
     18     -18.7826      2.00000
     19     -18.7821      2.00000
     20     -18.7817      2.00000
     21     -18.7814      2.00000
     22     -16.6232      2.00000
     23     -16.6229      2.00000
     24     -16.6220      2.00000
     25     -16.6219      2.00000
     26     -16.6214      2.00000
     27     -16.6213      2.00000
     28     -15.6519      2.00000
     29     -15.6519      2.00000
     30     -15.6512      2.00000
     31     -15.6510      2.00000
     32     -15.6505      2.00000
     33     -15.6504      2.00000
     34     -14.3040      2.00000
     35     -14.3039      2.00000
     36     -14.3033      2.00000
     37     -14.3031      2.00000
     38     -14.3030      2.00000
     39     -14.3029      2.00000
     40     -12.5256      2.00000
     41     -11.9316      2.00000
     42     -11.9314      2.00000
     43     -11.9310      2.00000
     44     -11.9309      2.00000
     45     -11.9299      2.00000
     46     -11.9296      2.00000
     47     -11.8443      2.00000
     48     -11.8443      2.00000
     49     -11.8437      2.00000
     50     -11.8437      2.00000
     51     -11.8432      2.00000
     52     -11.8430      2.00000
     53     -11.3835      2.00000
     54     -11.3205      2.00000
     55     -11.3202      2.00000
     56     -10.6307      2.00000
     57     -10.4774      2.00000
     58     -10.4773      2.00000
     59     -10.4758      2.00000
     60     -10.4754      2.00000
     61     -10.4752      2.00000
     62     -10.4752      2.00000
     63      -9.5145      2.00000
     64      -9.5140      2.00000
     65      -9.5136      2.00000
     66      -9.5123      2.00000
     67      -9.5113      2.00000
     68      -9.5113      2.00000
     69      -9.2175      2.00000
     70      -9.2174      2.00000
     71      -9.2168      2.00000
     72      -9.2166      2.00000
     73      -9.2161      2.00000
     74      -9.2160      2.00000
     75      -9.1531      2.00000
     76      -9.1529      2.00000
     77      -9.1525      2.00000
     78      -9.1524      2.00000
     79      -9.1521      2.00000
     80      -9.1512      2.00000
     81      -7.7846      2.00000
     82      -7.7843      2.00000
     83      -7.5715      2.00000
     84      -7.5700      2.00000
     85      -7.5698      2.00000
     86      -7.5693      2.00000
     87      -7.5682      2.00000
     88      -7.5681      2.00000
     89      -7.3823      2.00000
     90      -7.3818      2.00000
     91      -7.3817      2.00000
     92      -7.3816      2.00000
     93      -7.3814      2.00000
     94      -7.3814      2.00000
     95      -6.4845      2.00000
     96      -6.4839      2.00000
     97      -6.4835      2.00000
     98      -6.4832      2.00000
     99      -6.4830      2.00000
    100      -6.4829      2.00000
    101      -6.0955      2.00000
    102      -6.0933      2.00000
    103      -4.4986      2.00000
    104      -4.4984      2.00000
    105      -4.4980      2.00000
    106      -4.4979      2.00000
    107      -4.4966      2.00000
    108      -4.4964      2.00000
    109      -1.7039      0.00000
    110      -1.7036      0.00000
    111      -1.7027      0.00000
    112      -1.7024      0.00000
    113      -1.7021      0.00000
    114      -1.7019      0.00000
    115      -0.2707      0.00000
    116       0.1525      0.00000
    117       0.1530      0.00000
    118       0.1535      0.00000
    119       0.1540      0.00000
    120       0.1540      0.00000
    121       0.1560      0.00000
    122       0.1905      0.00000
    123       0.7150      0.00000
    124       0.8990      0.00000
    125       1.0556      0.00000
    126       1.0965      0.00000
    127       1.1069      0.00000
    128       1.1549      0.00000
    129       1.1655      0.00000
    130       1.1743      0.00000
    131       1.4058      0.00000
    132       1.4843      0.00000
    133       1.7025      0.00000
    134       1.8444      0.00000
    135       1.8785      0.00000
    136       2.0207      0.00000


--------------------------------------------------------------------------------------------------------


 soft charge-density along one line, spin component           1
         0         1         2         3         4         5         6         7         8         9
 total charge-density along one line
 
 pseudopotential strength for first ion, spin component:           1
 12.717  21.399   0.000   0.000   0.000   0.000   0.000   0.000
 21.399  36.009   0.000   0.000   0.000   0.000   0.000   0.000
  0.000   0.000  -3.220  -0.000   0.000  -5.771  -0.000   0.000
  0.000   0.000  -0.000  -3.224  -0.000  -0.000  -5.779  -0.000
  0.000   0.000   0.000  -0.000  -3.220   0.000  -0.000  -5.771
  0.000   0.000  -5.771  -0.000   0.000 -10.322  -0.000   0.000
  0.000   0.000  -0.000  -5.779  -0.000  -0.000 -10.334  -0.000
  0.000   0.000   0.000  -0.000  -5.771   0.000  -0.000 -10.322
 total augmentation occupancy for first ion, spin component:           1
  7.415  -2.550  -0.000  -0.002  -0.000   0.000   0.001   0.000
 -2.550   0.916   0.000   0.001   0.000  -0.000  -0.000  -0.000
 -0.000   0.000   6.889  -0.007   0.000  -2.287   0.003  -0.000
 -0.002   0.001  -0.007   2.993  -0.000   0.003  -0.763   0.000
 -0.000   0.000   0.000  -0.000   6.889  -0.000   0.000  -2.287
  0.000  -0.000  -2.287   0.003  -0.000   0.775  -0.001   0.000
  0.001  -0.000   0.003  -0.763   0.000  -0.001   0.202  -0.000
  0.000  -0.000  -0.000   0.000  -2.287   0.000  -0.000   0.775


------------------------ aborting loop because EDIFF is reached ----------------------------------------


    FORLOC:  cpu time    0.0671: real time    0.0678
    FORNL :  cpu time    0.8420: real time    0.8471
    FORCOR:  cpu time    4.3434: real time    4.3779
    OFIELD:  cpu time    0.0015: real time    0.0015

 VOLUME and BASIS-vectors are now :
 -----------------------------------------------------------------------------
  energy-cutoff  :     1000.00
  volume of cell :     3288.85
      direct lattice vectors                 reciprocal lattice vectors
    12.325000000  0.000000000  0.000000000     0.081135903  0.046843835  0.000000000
    -6.162500000 10.673763102  0.000000000     0.000000000  0.093687670  0.000000000
     0.000000000  0.000000000 25.000000000     0.000000000  0.000000000  0.040000000

  length of vectors
    12.325000000 12.325000000 25.000000000     0.093687670  0.093687670  0.040000000


 FORCES acting on ions:
    Electron-Ion                     Ewald-Force                    Non-Local-Force
 -----------------------------------------------------------------------------------------------
   0.263E+01 0.228E+01 0.215E+02   -.263E+01 -.228E+01 -.215E+02   0.659E-02 -.882E-03 0.710E-02
   0.375E+01 0.184E+01 0.239E+02   -.376E+01 -.184E+01 -.239E+02   0.641E-02 -.389E-02 -.524E-02
   0.157E+01 0.424E+01 0.252E+02   -.157E+01 -.424E+01 -.252E+02   -.423E-03 0.147E-01 0.293E-02
   0.203E+01 0.293E+01 0.301E+02   -.203E+01 -.294E+01 -.301E+02   0.141E-01 0.191E-02 -.798E-02
   0.281E+01 0.674E+00 0.219E+02   -.281E+01 -.672E+00 -.219E+02   0.128E-02 -.685E-02 0.177E-02
   0.287E+01 -.586E+00 0.221E+02   -.288E+01 0.589E+00 -.221E+02   -.622E-02 0.259E-02 -.528E-02
   0.389E+01 0.143E+01 0.290E+02   -.389E+01 -.143E+01 -.290E+02   0.159E-01 -.209E-01 -.360E-02
   0.379E+01 -.135E+01 0.302E+02   -.380E+01 0.135E+01 -.302E+02   -.282E-02 -.794E-02 -.625E-02
   -.190E+01 0.385E+01 0.255E+02   0.190E+01 -.386E+01 -.255E+02   -.304E-02 -.993E-02 -.528E-02
   -.276E+01 0.233E+01 0.298E+02   0.277E+01 -.233E+01 -.298E+02   -.300E-01 0.178E-01 0.485E-02
   0.737E+00 -.746E+00 0.201E+02   -.733E+00 0.745E+00 -.201E+02   0.282E-02 -.259E-02 -.166E-02
   0.653E+00 -.550E+00 0.195E+02   -.651E+00 0.549E+00 -.195E+02   -.831E-02 0.390E-02 0.456E-02
   0.146E+01 -.317E+01 0.319E+02   -.147E+01 0.317E+01 -.319E+02   0.307E-01 -.108E-01 -.245E-03
   0.855E+00 -.428E+01 0.265E+02   -.863E+00 0.429E+01 -.265E+02   0.664E-02 0.389E-02 -.165E-01
   -.255E+01 0.156E+01 0.213E+02   0.255E+01 -.156E+01 -.213E+02   0.714E-02 -.350E-02 0.476E-02
   -.342E+01 0.102E+01 0.223E+02   0.342E+01 -.102E+01 -.223E+02   -.374E-02 0.676E-02 -.699E-02
   -.465E+00 -.183E+00 0.190E+02   0.470E+00 0.180E+00 -.190E+02   -.199E-02 0.987E-03 0.170E-02
   0.208E+00 0.160E+01 0.194E+02   -.207E+00 -.160E+01 -.194E+02   -.410E-02 0.244E-02 0.928E-02
   -.662E+00 -.408E+01 0.238E+02   0.660E+00 0.408E+01 -.238E+02   0.797E-02 -.354E-02 0.110E-02
   -.365E+00 -.238E+01 0.205E+02   0.360E+00 0.238E+01 -.205E+02   0.156E-02 -.240E-02 -.974E-03
   0.375E+01 -.165E+01 0.249E+02   -.375E+01 0.166E+01 -.249E+02   0.479E-03 -.398E-02 -.196E-01
   0.256E+01 -.211E+01 0.228E+02   -.256E+01 0.211E+01 -.228E+02   -.642E-02 0.510E-02 -.528E-02
   -.712E+00 0.133E+01 0.333E+02   0.710E+00 -.133E+01 -.333E+02   -.118E-01 0.120E-01 0.889E-02
   -.955E+00 -.208E+01 0.329E+02   0.955E+00 0.208E+01 -.329E+02   0.131E-01 -.171E-01 -.308E-02
   0.137E+01 -.531E+00 0.202E+02   -.137E+01 0.529E+00 -.202E+02   0.266E-02 -.222E-02 -.518E-02
   0.330E+00 0.120E+01 0.201E+02   -.328E+00 -.120E+01 -.201E+02   -.663E-02 0.435E-02 0.393E-02
   -.427E+01 0.582E+00 0.264E+02   0.428E+01 -.586E+00 -.264E+02   0.799E-02 0.960E-02 -.218E-02
   -.410E+01 -.162E+01 0.255E+02   0.410E+01 0.162E+01 -.255E+02   -.121E-01 0.101E-01 0.296E-02
   0.150E+01 -.300E+01 0.232E+02   -.150E+01 0.300E+01 -.232E+02   0.651E-02 0.134E-02 -.927E-02
   0.129E+00 -.129E+01 0.208E+02   -.132E+00 0.130E+01 -.208E+02   -.401E-02 0.239E-02 -.425E-02
   -.298E+01 -.309E+01 0.278E+02   0.298E+01 0.309E+01 -.278E+02   -.142E-01 -.944E-02 -.747E-02
   -.208E+01 -.387E+01 0.240E+02   0.208E+01 0.388E+01 -.240E+02   0.700E-03 -.372E-02 0.467E-02
   0.180E+00 0.732E+00 0.194E+02   -.182E+00 -.732E+00 -.194E+02   0.643E-02 -.524E-02 0.603E-02
   0.466E+00 0.707E+00 0.200E+02   -.469E+00 -.705E+00 -.200E+02   -.173E-02 0.417E-02 -.248E-02
   -.178E+01 0.297E+00 0.206E+02   0.178E+01 -.298E+00 -.206E+02   0.372E-02 -.201E-02 0.418E-02
   -.158E+01 -.681E+00 0.204E+02   0.158E+01 0.680E+00 -.204E+02   -.572E-02 0.314E-02 0.256E-02
   -.304E+01 -.159E+01 0.216E+02   0.304E+01 0.159E+01 -.216E+02   -.374E-02 0.130E-02 0.355E-02
   -.196E+01 -.156E+01 0.202E+02   0.196E+01 0.156E+01 -.202E+02   -.555E-02 0.136E-02 0.943E-02
   -.178E+01 -.228E+01 0.208E+02   0.179E+01 0.229E+01 -.208E+02   -.422E-02 -.571E-03 0.597E-02
   -.271E+00 -.600E+00 0.196E+02   0.272E+00 0.601E+00 -.196E+02   0.223E-02 0.698E-04 0.795E-02
   0.670E+00 0.168E+01 0.198E+02   -.670E+00 -.168E+01 -.198E+02   -.429E-02 0.283E-02 0.764E-02
   0.205E+01 0.319E+01 0.219E+02   -.205E+01 -.319E+01 -.219E+02   0.825E-03 0.387E-03 0.948E-02
   0.194E+00 0.281E+01 0.205E+02   -.189E+00 -.281E+01 -.205E+02   -.190E-02 0.259E-02 0.184E-02
   -.524E-01 0.428E+01 0.238E+02   0.562E-01 -.429E+01 -.238E+02   -.103E-01 0.416E-02 0.619E-02
   -.530E+00 0.101E+01 0.206E+02   0.533E+00 -.101E+01 -.206E+02   0.354E-02 -.265E-02 -.650E-03
   -.203E+01 0.250E+01 0.221E+02   0.203E+01 -.250E+01 -.221E+02   -.802E-02 0.148E-02 -.368E-02
   -.479E+00 -.120E+01 0.201E+02   0.477E+00 0.120E+01 -.201E+02   0.772E-02 -.186E-02 0.450E-02
   -.108E+01 0.401E+00 0.195E+02   0.108E+01 -.400E+00 -.195E+02   -.271E-02 0.304E-02 -.452E-02
   0.115E+00 -.748E+00 0.195E+02   -.117E+00 0.749E+00 -.195E+02   0.525E-02 -.360E-02 0.588E-02
   0.118E+01 0.846E+00 0.195E+02   -.119E+01 -.843E+00 -.195E+02   0.153E-02 0.131E-02 0.321E-02
   0.121E-01 0.109E-01 -.288E+03   -.155E-01 -.778E-02 0.288E+03   -.296E-02 0.195E-02 -.427E-02
   -.229E+03 0.156E+03 -.445E+03   0.279E+03 -.190E+03 0.448E+03   -.512E+02 0.348E+02 -.344E+01
   0.229E+03 -.156E+03 -.423E+03   -.279E+03 0.190E+03 0.420E+03   0.512E+02 -.348E+02 0.308E+01
 -----------------------------------------------------------------------------------------------
   -.643E-02 0.132E-01 0.348E+00   0.114E-12 -.114E-12 0.171E-12   0.633E-02 -.133E-01 -.350E+00
 
 
 POSITION                                       TOTAL-FORCE (eV/Angst)
 -----------------------------------------------------------------------------------
     11.98348      0.00342      0.01417         0.003026     -0.001493     -0.001005
     -0.34154      1.42665      0.01100        -0.001312     -0.000033     -0.003204
      2.12355      0.00315      0.01249        -0.001601      0.009922     -0.006025
      2.12326      1.42653      0.00641         0.012576      0.000940     -0.007502
     10.75099      2.13819      0.01213         0.000198     -0.005386     -0.000037
     -1.57382      3.56123      0.01110        -0.008621      0.004865     -0.001390
      0.89078      2.13854      0.00548         0.008777     -0.018488      0.002744
      0.89099      3.56147      0.00181        -0.012619     -0.001965      0.011981
      4.58864      0.00346      0.01135         0.004097     -0.016384     -0.003317
      4.58894      1.42623      0.00646        -0.022449      0.012569      0.014163
      9.51854      4.27281      0.01369         0.006706     -0.003190      0.000232
     -2.80632      5.69591      0.01434        -0.006339      0.003312      0.000764
      2.12300      4.27302      0.00000         0.023978     -0.004375      0.020700
      2.12335      5.69594      0.00581        -0.000998      0.009730     -0.002398
      7.05344      0.00333      0.01399         0.009137     -0.005163     -0.000376
      7.05353      1.42635      0.01368        -0.001442      0.004658     -0.003660
      8.28610      6.40752      0.01601         0.003212     -0.001548     -0.000750
     -4.03885      7.83070      0.01636        -0.002053      0.000854     -0.000133
      3.35586      6.40753      0.01007         0.005066      0.000622     -0.001222
      3.35599      7.83072      0.01320        -0.003400      0.000299     -0.000574
     -0.34146      4.27290      0.00723        -0.002171     -0.001149     -0.004311
     -0.34138      5.69591      0.00946        -0.008985      0.006283     -0.001052
      3.35624      2.13791      0.00222        -0.013047      0.011458      0.016818
      3.35573      3.56155      0.00139         0.013253     -0.015199      0.009293
     -1.57395      6.40758      0.01311         0.005653     -0.004035     -0.000551
     -1.57385      7.83068      0.01438        -0.004639      0.003684      0.000049
      5.82093      2.13784      0.01033         0.016727      0.004885     -0.002722
      5.82114      3.56097      0.01156        -0.005758      0.008135     -0.003465
      0.89092      6.40755      0.00907         0.004230      0.002262     -0.002149
      0.89106      7.83068      0.01235        -0.006918      0.003693      0.000400
      4.58871      4.27293      0.00850        -0.012126     -0.006096     -0.010204
      4.58852      5.69606      0.01149         0.001901     -0.000507     -0.003775
      9.51845      0.00337      0.01490         0.004583     -0.004591      0.000165
      9.51855      1.42644      0.01438        -0.005115      0.005563     -0.000280
      8.28593      2.13803      0.01453         0.006526     -0.003473      0.000607
      8.28613      3.56115      0.01464        -0.004131      0.002052     -0.000011
      7.05356      4.27269      0.01457         0.003132     -0.001064     -0.000526
      7.05362      5.69588      0.01553        -0.002345      0.001450     -0.000104
      5.82112      6.40755      0.01489        -0.002664      0.001706     -0.000012
      5.82102      7.83073      0.01579         0.002639      0.000399     -0.000286
      7.05363      8.54227      0.01631        -0.004563      0.001030      0.001080
     -5.27149      9.96549      0.01495        -0.000214     -0.002235     -0.002068
     -2.80638      8.54234      0.01558         0.003372     -0.001698     -0.001123
     -2.80627      9.96553      0.01362        -0.006252     -0.000317     -0.003708
     -0.34149      8.54239      0.01378         0.005819     -0.004741      0.000260
     -0.34138      9.96550      0.01354        -0.005591     -0.000123     -0.001174
      2.12343      8.54232      0.01336         0.005685     -0.001502      0.000769
      2.12354      9.96544      0.01469        -0.005371      0.003895     -0.001816
      4.58846      8.54235      0.01505         0.003585     -0.002779      0.000979
      4.58853      9.96550      0.01517        -0.003086      0.003363      0.000194
      3.04930      2.68154      5.94604        -0.006236      0.005068      0.028803
      4.02070      2.02068      6.01046        -0.591036      0.401710     -0.057114
      2.07767      3.34267      5.88658         0.597206     -0.406871      0.018046
 -----------------------------------------------------------------------------------
    total drift:                               -0.000100     -0.000150     -0.001431


--------------------------------------------------------------------------------------------------------



  FREE ENERGIE OF THE ION-ELECTRON SYSTEM (eV)
  ---------------------------------------------------
  free  energy   TOTEN  =      -427.05889600 eV

  energy  without entropy=     -427.05889600  energy(sigma->0) =     -427.05889600
 


--------------------------------------------------------------------------------------------------------


    POTLOK:  cpu time    4.3519: real time    4.3829


--------------------------------------------------------------------------------------------------------


 writing wavefunctions
     LOOP+:  cpu time  288.2395: real time  291.1650
    4ORBIT:  cpu time    0.0000: real time    0.0000

 total amount of memory used by VASP MPI-rank0   100580. kBytes
=======================================================================

   base      :      30000. kBytes
   nonl-proj :       8229. kBytes
   fftplans  :      18352. kBytes
   grid      :      30208. kBytes
   one-center:          6. kBytes
   wavefun   :      13785. kBytes
 
  
  
 General timing and accounting informations for this job:
 ========================================================
  
                  Total CPU time used (sec):      330.483
                            User time (sec):      307.770
                          System time (sec):       22.713
                         Elapsed time (sec):      334.796
  
                   Maximum memory used (kb):      780752.
                   Average memory used (kb):          N/A
  
                          Minor page faults:       437875
                          Major page faults:           94
                 Voluntary context switches:         3786
