 vasp.6.2.1 16May21 (build Nov 06 2021 14:46:37) complex                        
  
 executed on             LinuxIFC date 2025.05.13  19:38:30
 running on  112 total cores
 distrk:  each k-point on  112 cores,    1 groups
 distr:  one band on NCORE=  28 cores,    4 groups


--------------------------------------------------------------------------------------------------------


 INCAR:
   ALGO = Conjugate
   NPAR = 4
   ISMEAR = 0
   SIGMA = 0.01
   PREC = Accurate
   EDIFF = 1E-7
   ENCUT = 1000
   ISIF = 0
   GGA = MK
   LUSE_VDW = .TRUE.
   PARAM1 = 0.1234
   PARAM2 = 0.711357
   ZAB_VDW = -1.8867
   AGGAC = 0.0000
   LASPH = .TRUE.

 POTCAR:    PAW_PBE C_h 06Feb2004                 
 POTCAR:    PAW_PBE O_h 06Feb2004                 
 -----------------------------------------------------------------------------
|                                                                             |
|           W    W    AA    RRRRR   N    N  II  N    N   GGGG   !!!           |
|           W    W   A  A   R    R  NN   N  II  NN   N  G    G  !!!           |
|           W    W  A    A  R    R  N N  N  II  N N  N  G       !!!           |
|           W WW W  AAAAAA  RRRRR   N  N N  II  N  N N  G  GGG   !            |
|           WW  WW  A    A  R   R   N   NN  II  N   NN  G    G                |
|           W    W  A    A  R    R  N    N  II  N    N   GGGG   !!!           |
|                                                                             |
|     For optimal performance we recommend to set                             |
|       NCORE = 2 up to number-of-cores-per-socket                            |
|     NCORE specifies how many cores store one orbital (NPAR=cpu/NCORE).      |
|     This setting can greatly improve the performance of VASP for DFT.       |
|     The default, NCORE=1 might be grossly inefficient on modern             |
|     multi-core architectures or massively parallel machines. Do your        |
|     own testing! More info at https://www.vasp.at/wiki/index.php/NCORE      |
|     Unfortunately you need to use the default for GW and RPA                |
|     calculations (for HF NCORE is supported but not extensively tested      |
|     yet).                                                                   |
|                                                                             |
 -----------------------------------------------------------------------------

 -----------------------------------------------------------------------------
|                                                                             |
|               ----> ADVICE to this user running VASP <----                  |
|                                                                             |
|     You have switched on vdW-DFT.                                           |
|     This routine was written and supplied by Jiri Klimes. We recommend      |
|     that you carefully read and cite the following publications:            |
|       J. Klimes, D.R. Bowler, A. Michelides                                 |
|          J. Phys.: Cond Matt. 22 022201 (2010)                              |
|       J. Klimes, D.R. Bowler, A. Michelides                                 |
|          Phys. Rev. B. 83, 195131 (2011)                                    |
|     and references therein.                                                 |
|                                                                             |
 -----------------------------------------------------------------------------

 POTCAR:    PAW_PBE C_h 06Feb2004                 
   VRHFIN =C: s2p2                                                                                  
   LEXCH  = PE                                                                                      
   EATOM  =   147.1560 eV,   10.8157 Ry                                                             
                                                                                                    
   TITEL  = PAW_PBE C_h 06Feb2004                                                                   
   LULTRA =        F    use ultrasoft PP ?                                                          
   IUNSCR =        1    unscreen: 0-lin 1-nonlin 2-no                                               
   RPACOR =    0.800    partial core radius                                                         
   POMASS =   12.011; ZVAL   =    4.000    mass and valenz                                          
   RCORE  =    1.100    outmost cutoff radius                                                       
   RWIGS  =    1.630; RWIGS  =    0.863    wigner-seitz radius (au A)                               
   ENMAX  =  700.000; ENMIN  =  500.000 eV                                                          
   ICORE  =        2    local potential                                                             
   LCOR   =        T    correct aug charges                                                         
   LPAW   =        T    paw PP                                                                      
   EAUG   =  946.768                                                                                
   DEXC   =    0.000                                                                                
   RMAX   =    1.128    core radius for proj-oper                                                   
   RAUG   =    1.300    factor for augmentation sphere                                              
   RDEP   =    1.162    radius for radial grids                                                     
   RDEPT  =    1.088    core radius for aug-charge                                                  
                                                                                                    
   Atomic configuration                                                                             
    4 entries                                                                                       
     n  l   j            E        occ.                                                              
     1  0  0.50      -273.3789   2.0000                                                             
     2  0  0.50       -13.7508   2.0000                                                             
     2  1  0.50        -5.2854   2.0000                                                             
     3  2  1.50        -5.4423   0.0000                                                             
   Description                                                                                      
     l       E           TYP  RCUT    TYP  RCUT                                                     
     0    -13.7508458     23  1.100                                                                 
     0     -8.2022199     23  1.100                                                                 
     1     -5.2854383     23  1.100                                                                 
     1      1.1560700     23  1.100                                                                 
     2     -5.4423304      7  1.100                                                                 
  local pseudopotential read in
  partial core-charges read in
  partial kinetic energy density read in
  atomic valenz-charges read in
  non local Contribution for L=           0  read in
    real space projection operators read in
  non local Contribution for L=           0  read in
    real space projection operators read in
  non local Contribution for L=           1  read in
    real space projection operators read in
  non local Contribution for L=           1  read in
    real space projection operators read in
    PAW grid and wavefunctions read in
 
   number of l-projection  operators is LMAX  =           4
   number of lm-projection operators is LMMAX =           8
 
 POTCAR:    PAW_PBE O_h 06Feb2004                 
   VRHFIN =O: s2p4                                                                                  
   LEXCH  = PE                                                                                      
   EATOM  =   432.3788 eV,   31.7789 Ry                                                             
                                                                                                    
   TITEL  = PAW_PBE O_h 06Feb2004                                                                   
   LULTRA =        F    use ultrasoft PP ?                                                          
   IUNSCR =        1    unscreen: 0-lin 1-nonlin 2-no                                               
   RPACOR =    0.800    partial core radius                                                         
   POMASS =   16.000; ZVAL   =    6.000    mass and valenz                                          
   RCORE  =    1.100    outmost cutoff radius                                                       
   RWIGS  =    1.400; RWIGS  =    0.741    wigner-seitz radius (au A)                               
   ENMAX  =  700.000; ENMIN  =  500.000 eV                                                          
   ICORE  =        2    local potential                                                             
   LCOR   =        T    correct aug charges                                                         
   LPAW   =        T    paw PP                                                                      
   EAUG   =  888.804                                                                                
   DEXC   =    0.000                                                                                
   RMAX   =    1.128    core radius for proj-oper                                                   
   RAUG   =    1.300    factor for augmentation sphere                                              
   RDEP   =    1.125    radius for radial grids                                                     
   RDEPT  =    1.088    core radius for aug-charge                                                  
                                                                                                    
   Atomic configuration                                                                             
    4 entries                                                                                       
     n  l   j            E        occ.                                                              
     1  0  0.50      -514.6923   2.0000                                                             
     2  0  0.50       -23.9615   2.0000                                                             
     2  1  0.50        -9.0305   4.0000                                                             
     3  2  1.50        -9.5241   0.0000                                                             
   Description                                                                                      
     l       E           TYP  RCUT    TYP  RCUT                                                     
     0    -23.9615319     23  1.100                                                                 
     0    -25.3221145     23  1.100                                                                 
     1     -9.0304911     23  1.100                                                                 
     1     -5.4802209     23  1.100                                                                 
     2     -9.5240782      7  1.100                                                                 
  local pseudopotential read in
  partial core-charges read in
  partial kinetic energy density read in
  atomic valenz-charges read in
  non local Contribution for L=           0  read in
    real space projection operators read in
  non local Contribution for L=           0  read in
    real space projection operators read in
  non local Contribution for L=           1  read in
    real space projection operators read in
  non local Contribution for L=           1  read in
    real space projection operators read in
    PAW grid and wavefunctions read in
 
   number of l-projection  operators is LMAX  =           4
   number of lm-projection operators is LMMAX =           8
 
 -----------------------------------------------------------------------------
|                                                                             |
|               ----> ADVICE to this user running VASP <----                  |
|                                                                             |
|     You have a (more or less) 'large supercell' and for larger cells it     |
|     might be more efficient to use real-space projection operators.         |
|     Therefore, try LREAL= Auto in the INCAR file.                           |
|     Mind: For very accurate calculation, you might also keep the            |
|     reciprocal projection scheme (i.e. LREAL=.FALSE.).                      |
|                                                                             |
 -----------------------------------------------------------------------------

 -----------------------------------------------------------------------------
|                                                                             |
|               ----> ADVICE to this user running VASP <----                  |
|                                                                             |
|     You enforced a specific xc type in the INCAR file but a different       |
|     type was found in the POTCAR file.                                      |
|     I HOPE YOU KNOW WHAT YOU ARE DOING!                                     |
|                                                                             |
 -----------------------------------------------------------------------------

  PAW_PBE C_h 06Feb2004                 :
 energy of atom  1       EATOM= -147.1560
 kinetic energy error for atom=    0.0031 (will be added to EATOM!!)
  PAW_PBE O_h 06Feb2004                 :
 energy of atom  2       EATOM= -432.3788
 kinetic energy error for atom=    0.0171 (will be added to EATOM!!)
 
 
 POSCAR: C  O
  positions in cartesian coordinates
  No initial velocities read in
 exchange correlation table for  LEXCH =       43
   RHO(1)=    0.500       N(1)  =     2000
   RHO(2)=  100.500       N(2)  =     4000
 


--------------------------------------------------------------------------------------------------------


 ion  position               nearest neighbor table
   1  0.972  0.000  0.001-  50 1.42   2 1.42  42 1.42
   2  0.039  0.134  0.000-   5 1.42   7 1.42   1 1.42
   3  0.172  0.000  0.000-  42 1.42  44 1.42   4 1.42
   4  0.239  0.134  0.000-   7 1.42   3 1.42  23 1.42
   5  0.972  0.200  0.000-   6 1.42   2 1.42  34 1.42
   6  0.039  0.334  0.000-   5 1.42  21 1.42  11 1.42
   7  0.172  0.200  0.000-   8 1.42   2 1.42   4 1.42
   8  0.239  0.334  0.000-  13 1.42   7 1.42  21 1.42
   9  0.372  0.000  0.000-  10 1.42  44 1.42  46 1.42
  10  0.439  0.134  0.000-  27 1.42   9 1.42  23 1.42
  11  0.972  0.400  0.001-  12 1.42  36 1.42   6 1.42
  12  0.039  0.534  0.001-  25 1.42  11 1.42  17 1.42
  13  0.372  0.400  0.000-   8 1.42  14 1.42  24 1.42
  14  0.439  0.534  0.000-  13 1.42  29 1.42  19 1.42
  15  0.572  0.000  0.001-  46 1.42  16 1.42  48 1.42
  16  0.639  0.134  0.001-  15 1.42  35 1.42  27 1.42
  17  0.972  0.600  0.001-  38 1.42  18 1.42  12 1.42
  18  0.039  0.734  0.001-  43 1.42  41 1.42  17 1.42
  19  0.572  0.600  0.000-  14 1.42  20 1.42  32 1.42
  20  0.639  0.734  0.001-  49 1.42  19 1.42  47 1.42
  21  0.172  0.400  0.000-  22 1.42   8 1.42   6 1.42
  22  0.239  0.534  0.000-  21 1.42  29 1.42  25 1.42
  23  0.372  0.200  0.000-  10 1.42   4 1.42  24 1.42
  24  0.439  0.334  0.000-  13 1.42  31 1.42  23 1.42
  25  0.172  0.600  0.001-  26 1.42  12 1.42  22 1.42
  26  0.239  0.734  0.001-  25 1.42  45 1.42  43 1.42
  27  0.572  0.200  0.000-  10 1.42  28 1.42  16 1.42
  28  0.639  0.334  0.000-  27 1.42  37 1.42  31 1.42
  29  0.372  0.600  0.000-  22 1.42  14 1.42  30 1.42
  30  0.439  0.734  0.000-  47 1.42  29 1.42  45 1.42
  31  0.572  0.400  0.000-  32 1.42  28 1.42  24 1.42
  32  0.639  0.534  0.000-  31 1.42  39 1.42  19 1.42
  33  0.772  0.000  0.001-  34 1.42  48 1.42  50 1.42
  34  0.839  0.134  0.001-  33 1.42   5 1.42  35 1.42
  35  0.772  0.200  0.001-  36 1.42  16 1.42  34 1.42
  36  0.839  0.334  0.001-  35 1.42  11 1.42  37 1.42
  37  0.772  0.400  0.001-  28 1.42  38 1.42  36 1.42
  38  0.839  0.534  0.001-  17 1.42  37 1.42  39 1.42
  39  0.772  0.600  0.001-  40 1.42  38 1.42  32 1.42
  40  0.839  0.734  0.001-  39 1.42  49 1.42  41 1.42
  41  0.972  0.800  0.001-  18 1.42  42 1.42  40 1.42
  42  0.039  0.934  0.001-   3 1.42  41 1.42   1 1.42
  43  0.172  0.800  0.001-  18 1.42  44 1.42  26 1.42
  44  0.239  0.934  0.001-   9 1.42  43 1.42   3 1.42
  45  0.372  0.800  0.001-  26 1.42  46 1.42  30 1.42
  46  0.439  0.934  0.001-  15 1.42  45 1.42   9 1.42
  47  0.572  0.800  0.001-  30 1.42  48 1.42  20 1.42
  48  0.639  0.934  0.001-  47 1.42  33 1.42  15 1.42
  49  0.772  0.800  0.001-  50 1.42  20 1.42  40 1.42
  50  0.839  0.934  0.001-  49 1.42   1 1.42  33 1.42
  51  0.373  0.251  0.130-  52 1.18  53 1.18
  52  0.421  0.189  0.133-  51 1.18
  53  0.325  0.313  0.128-  51 1.18
 
  LATTYP: Found a hexagonal cell.
 ALAT       =    12.3250000000
 C/A-ratio  =     2.0283975659
  
  Lattice vectors:
  
 A1 = (  12.3250000000,   0.0000000000,   0.0000000000)
 A2 = (  -6.1625000000,  10.6737631016,   0.0000000000)
 A3 = (   0.0000000000,   0.0000000000,  25.0000000000)


Analysis of symmetry for initial positions (statically):
=====================================================================
 Subroutine PRICEL returns:
 Original cell was already a primitive cell.
 

 Routine SETGRP: Setting up the symmetry group for a 
 hexagonal supercell.


 Subroutine GETGRP returns: Found  1 space group operations
 (whereof  1 operations were pure point group operations)
 out of a pool of 24 trial point group operations.


The static configuration has the point symmetry C_1 .


Analysis of symmetry for dynamics (positions and initial velocities):
=====================================================================
 Subroutine PRICEL returns:
 Original cell was already a primitive cell.
 

 Routine SETGRP: Setting up the symmetry group for a 
 hexagonal supercell.


 Subroutine GETGRP returns: Found  1 space group operations
 (whereof  1 operations were pure point group operations)
 out of a pool of 24 trial point group operations.


The dynamic configuration has the point symmetry C_1 .


 Subroutine INISYM returns: Found  1 space group operations
 (whereof  1 operations are pure point group operations),
 and found     1 'primitive' translations


----------------------------------------------------------------------------------------

                                     Primitive cell                                     

  volume of cell :    3288.8533

  direct lattice vectors                    reciprocal lattice vectors
    12.325000000  0.000000000  0.000000000     0.081135903  0.046843835  0.000000000
    -6.162500000 10.673763102  0.000000000     0.000000000  0.093687670  0.000000000
     0.000000000  0.000000000 25.000000000     0.000000000  0.000000000  0.040000000

  length of vectors
    12.325000000 12.325000000 25.000000000     0.093687670  0.093687670  0.040000000

  position of ions in fractional coordinates (direct lattice)
     0.972450841  0.000320818  0.000566711
     0.039118382  0.133659505  0.000440173
     0.172443627  0.000295449  0.000499628
     0.239096278  0.133647917  0.000256468
     0.972452058  0.200322012  0.000485219
     0.039128360  0.333643771  0.000444150
     0.172451764  0.200354552  0.000219167
     0.239124359  0.333665720  0.000072260
     0.372465565  0.000324403  0.000453913
     0.439137473  0.133619939  0.000258338
     0.972449824  0.400309362  0.000547611
     0.039124981  0.533636789  0.000573410
     0.372416176  0.400329481  0.000000000
     0.439099602  0.533638981  0.000232414
     0.572443676  0.000312125  0.000559580
     0.639110207  0.133631751  0.000547275
     0.972452703  0.600305653  0.000640289
     0.039124495  0.733640359  0.000654513
     0.572433471  0.600306242  0.000402895
     0.639111888  0.733641879  0.000527905
     0.172454630  0.400318228  0.000289045
     0.239120185  0.533636548  0.000378509
     0.372459750  0.200295993  0.000088997
     0.439107096  0.333673419  0.000055762
     0.172452155  0.600311506  0.000524340
     0.239123371  0.733638574  0.000575129
     0.572431082  0.200289171  0.000413296
     0.639112773  0.333618630  0.000462376
     0.372439808  0.600308022  0.000362844
     0.439116090  0.733637858  0.000494190
     0.572469358  0.400320504  0.000339918
     0.639119408  0.533650873  0.000459610
     0.772445723  0.000315427  0.000596161
     0.839116277  0.133640203  0.000575306
     0.772440513  0.200307432  0.000581033
     0.839120241  0.333635728  0.000585467
     0.772446320  0.400298367  0.000582978
     0.839118980  0.533633964  0.000621100
     0.772456143  0.600308173  0.000595712
     0.839115033  0.733643180  0.000631512
     0.972455313  0.800305582  0.000652233
     0.039114714  0.933643289  0.000598051
     0.172457971  0.800312211  0.000623372
     0.239134551  0.933647193  0.000544850
     0.372451396  0.800316674  0.000551399
     0.439124489  0.933644769  0.000541430
     0.572441101  0.800310054  0.000534535
     0.639115067  0.933638985  0.000587644
     0.772445098  0.800313187  0.000602062
     0.839116614  0.933644338  0.000606830
     0.373021009  0.251226878  0.129992105
     0.420879805  0.189313152  0.132568979
     0.325156981  0.313167186  0.127613910

  ion indices of the primitive-cell ions
   primitive index   ion index
                 1           1
                 2           2
                 3           3
                 4           4
                 5           5
                 6           6
                 7           7
                 8           8
                 9           9
                10          10
                11          11
                12          12
                13          13
                14          14
                15          15
                16          16
                17          17
                18          18
                19          19
                20          20
                21          21
                22          22
                23          23
                24          24
                25          25
                26          26
                27          27
                28          28
                29          29
                30          30
                31          31
                32          32
                33          33
                34          34
                35          35
                36          36
                37          37
                38          38
                39          39
                40          40
                41          41
                42          42
                43          43
                44          44
                45          45
                46          46
                47          47
                48          48
                49          49
                50          50
                51          51
                52          52
                53          53

----------------------------------------------------------------------------------------

 
 
 KPOINTS: auto                                    

Automatic generation of k-mesh.
 Grid dimensions read from file:
 generate k-points for:    1    1    1

 Generating k-lattice:

  Cartesian coordinates                     Fractional coordinates (reciprocal lattice)
     0.081135903  0.046843835  0.000000000     1.000000000 -0.000000000  0.000000000
     0.000000000  0.093687670  0.000000000     0.000000000  1.000000000  0.000000000
     0.000000000  0.000000000  0.040000000     0.000000000  0.000000000  1.000000000

  Length of vectors
     0.093687670  0.093687670  0.040000000

  Shift w.r.t. Gamma in fractional coordinates (k-lattice)
     0.000000000  0.000000000  0.000000000

 
 Subroutine IBZKPT returns following result:
 ===========================================
 
 Found      1 irreducible k-points:
 
 Following reciprocal coordinates:
            Coordinates               Weight
  0.000000  0.000000  0.000000      1.000000
 
 Following cartesian coordinates:
            Coordinates               Weight
  0.000000  0.000000  0.000000      1.000000
 


--------------------------------------------------------------------------------------------------------




 Dimension of arrays:
   k-points           NKPTS =      1   k-points in BZ     NKDIM =      1   number of bands    NBANDS=    136
   number of dos      NEDOS =    301   number of ions     NIONS =     53
   non local maximal  LDIM  =      4   non local SUM 2l+1 LMDIM =      8
   total plane-waves  NPLWV = ******
   max r-space proj   IRMAX =      1   max aug-charges    IRDMAX=  10008
   dimension x,y,z NGX =   128 NGY =  128 NGZ =  270
   dimension x,y,z NGXF=   256 NGYF=  256 NGZF=  540
   support grid    NGXF=   256 NGYF=  256 NGZF=  540
   ions per type =              51   2
   NGX,Y,Z   is equivalent  to a cutoff of  17.27, 17.27, 17.95 a.u.
   NGXF,Y,Z  is equivalent  to a cutoff of  34.53, 34.53, 35.91 a.u.

 SYSTEM =  unknown system                          
 POSCAR =  C  O                                    

 Startparameter for this run:
   NWRITE =      2    write-flag & timer
   PREC   = accura    normal or accurate (medium, high low for compatibility)
   ISTART =      0    job   : 0-new  1-cont  2-samecut
   ICHARG =      2    charge: 1-file 2-atom 10-const
   ISPIN  =      1    spin polarized calculation?
   LNONCOLLINEAR =      F non collinear calculations
   LSORBIT =      F    spin-orbit coupling
   INIWAV =      1    electr: 0-lowe 1-rand  2-diag
   LASPH  =      T    aspherical Exc in radial PAW
 Electronic Relaxation 1
   ENCUT  = 1000.0 eV  73.50 Ry    8.57 a.u.  31.78 31.78 64.46*2*pi/ulx,y,z
   ENINI  = 1000.0     initial cutoff
   ENAUG  =  946.8 eV  augmentation charge cutoff
   NELM   =     60;   NELMIN=  2; NELMDL= -5     # of ELM steps 
   EDIFF  = 0.1E-06   stopping-criterion for ELM
   LREAL  =      F    real-space projection
   NLSPLINE    = F    spline interpolate recip. space projectors
   LCOMPAT=      F    compatible to vasp.4.4
   GGA_COMPAT  = T    GGA compatible to vasp.4.4-vasp.4.6
   LMAXPAW     = -100 max onsite density
   LMAXMIX     =    2 max onsite mixed and CHGCAR
   VOSKOWN=      0    Vosko Wilk Nusair interpolation
   ROPT   =    0.00000   0.00000
 Ionic relaxation
   EDIFFG = 0.1E-05   stopping-criterion for IOM
   NSW    =      0    number of steps for IOM
   NBLOCK =      1;   KBLOCK =      1    inner block; outer block 
   IBRION =     -1    ionic relax: 0-MD 1-quasi-New 2-CG
   NFREE  =      0    steps in history (QN), initial steepest desc. (CG)
   ISIF   =      0    stress and relaxation
   IWAVPR =     10    prediction:  0-non 1-charg 2-wave 3-comb
   ISYM   =      2    0-nonsym 1-usesym 2-fastsym
   LCORR  =      T    Harris-Foulkes like correction to forces

   POTIM  = 0.5000    time-step for ionic-motion
   TEIN   =    0.0    initial temperature
   TEBEG  =    0.0;   TEEND  =   0.0 temperature during run
   SMASS  =  -3.00    Nose mass-parameter (am)
   estimated Nose-frequenzy (Omega)   =  0.10E-29 period in steps = 0.13E+47 mass=  -0.347E-26a.u.
   SCALEE = 1.0000    scale energy and forces
   NPACO  =    256;   APACO  = 16.0  distance and # of slots for P.C.
   PSTRESS=    0.0 pullay stress

  Mass of Ions in am
   POMASS =  12.01 16.00
  Ionic Valenz
   ZVAL   =   4.00  6.00
  Atomic Wigner-Seitz radii
   RWIGS  =  -1.00 -1.00
  virtual crystal weights 
   VCA    =   1.00  1.00
   NELECT =     216.0000    total number of electrons
   NUPDOWN=      -1.0000    fix difference up-down

 DOS related values:
   EMIN   =  10.00;   EMAX   =-10.00  energy-range for DOS
   EFERMI =   0.00
   ISMEAR =     0;   SIGMA  =   0.01  broadening in eV -4-tet -1-fermi 0-gaus

 Electronic relaxation 2 (details)
   IALGO  =     58    algorithm
   LDIAG  =      T    sub-space diagonalisation (order eigenvalues)
   LSUBROT=      F    optimize rotation matrix (better conditioning)
   TURBO    =      0    0=normal 1=particle mesh
   IRESTART =      0    0=no restart 2=restart with 2 vectors
   NREBOOT  =      0    no. of reboots
   NMIN     =      0    reboot dimension
   EREF     =   0.00    reference energy to select bands
   IMIX   =      4    mixing-type and parameters
     AMIX     =   0.40;   BMIX     =  1.00
     AMIX_MAG =   1.60;   BMIX_MAG =  1.00
     AMIN     =   0.10
     WC   =   100.;   INIMIX=   1;  MIXPRE=   1;  MAXMIX= -45

 Intra band minimization:
   WEIMIN = 0.0000     energy-eigenvalue tresh-hold
   EBREAK =  0.18E-09  absolut break condition
   DEPER  =   0.30     relativ break condition  

   TIME   =   0.40     timestep for ELM

  volume/ion in A,a.u.               =      62.05       418.76
  Fermi-wavevector in a.u.,A,eV,Ry     =   0.660508  1.248179  5.935820  0.436270
  Thomas-Fermi vector in A             =   1.732977
 
 Write flags
   LWAVE        =      T    write WAVECAR
   LDOWNSAMPLE  =      F    k-point downsampling of WAVECAR
   LCHARG       =      T    write CHGCAR
   LVTOT        =      F    write LOCPOT, total local potential
   LVHAR        =      F    write LOCPOT, Hartree potential only
   LELF         =      F    write electronic localiz. function (ELF)
   LORBIT       =      0    0 simple, 1 ext, 2 COOP (PROOUT), +10 PAW based schemes


 Dipole corrections
   LMONO  =      F    monopole corrections only (constant potential shift)
   LDIPOL =      F    correct potential (dipole corrections)
   IDIPOL =      0    1-x, 2-y, 3-z, 4-all directions 
   EPSILON=  1.0000000 bulk dielectric constant

 Exchange correlation treatment:
   GGA     =    MK    GGA type
   LEXCH   =    43    internal setting for exchange type
   VOSKOWN=      0    Vosko Wilk Nusair interpolation
   LHFCALC =     F    Hartree Fock is set to
   LHFONE  =     F    Hartree Fock one center treatment
   AEXX    =    0.0000 exact exchange contribution

 vdW DFT:
   LUSE_VDW   =     T    switch on vdW DFT
   Zab_VDW    =******    correlation parameter
   PARAM1     =0.1234
   PARAM2     =0.7114
   PARAM3     =0.0000
   -- rVV10 --
   BPARAM     = 6.3000
   CPARAM     = 0.0093

 Linear response parameters
   LEPSILON=     F    determine dielectric tensor
   LRPA    =     F    only Hartree local field effects (RPA)
   LNABLA  =     F    use nabla operator in PAW spheres
   LVEL    =     F    velocity operator in full k-point grid
   LINTERFAST=   F  fast interpolation
   KINTER  =     0    interpolate to denser k-point grid
   CSHIFT  =0.1000    complex shift for real part using Kramers Kronig
   OMEGAMAX=  -1.0    maximum frequency
   DEG_THRESHOLD= 0.2000000E-02 threshold for treating states as degnerate
   RTIME   =   -0.100 relaxation time in fs
  (WPLASMAI=    0.000 imaginary part of plasma frequency in eV, 0.658/RTIME)
   DFIELD  = 0.0000000 0.0000000 0.0000000 field for delta impulse in time
 
 Orbital magnetization related:
   ORBITALMAG=     F  switch on orbital magnetization
   LCHIMAG   =     F  perturbation theory with respect to B field
   DQ        =  0.001000  dq finite difference perturbation B field
   LLRAUG    =     F  two centre corrections for induced B field



--------------------------------------------------------------------------------------------------------


 Static calculation
 charge density and potential will be updated during run
 non-spin polarized calculation
 Conjugate gradient for all bands (Freysoldt, et al. PRB 79, 241103 (2009))
 preconditioned conjugated gradient                                        
 perform sub-space diagonalisation
    before iterative eigenvector-optimisation
 modified Broyden-mixing scheme, WC =      100.0
 initial mixing is a Kerker type mixing with AMIX =  0.4000 and BMIX =      1.0000
 Hartree-type preconditioning will be used
 using additional bands           28
 reciprocal scheme for non local part
 use partial core corrections
 no Harris-corrections to forces 
 use gradient corrections 
 use of overlap-Matrix (Vanderbilt PP)
 Gauss-broadening in eV      SIGMA  =   0.01


--------------------------------------------------------------------------------------------------------


  energy-cutoff  :     1000.00
  volume of cell :     3288.85
      direct lattice vectors                 reciprocal lattice vectors
    12.325000000  0.000000000  0.000000000     0.081135903  0.046843835  0.000000000
    -6.162500000 10.673763102  0.000000000     0.000000000  0.093687670  0.000000000
     0.000000000  0.000000000 25.000000000     0.000000000  0.000000000  0.040000000

  length of vectors
    12.325000000 12.325000000 25.000000000     0.093687670  0.093687670  0.040000000


 
 k-points in units of 2pi/SCALE and weight: auto                                    
   0.00000000  0.00000000  0.00000000       1.000
 
 k-points in reciprocal lattice and weights: auto                                    
   0.00000000  0.00000000  0.00000000       1.000
 
 position of ions in fractional coordinates (direct lattice) 
   0.97245084  0.00032082  0.00056671
   0.03911838  0.13365950  0.00044017
   0.17244363  0.00029545  0.00049963
   0.23909628  0.13364792  0.00025647
   0.97245206  0.20032201  0.00048522
   0.03912836  0.33364377  0.00044415
   0.17245176  0.20035455  0.00021917
   0.23912436  0.33366572  0.00007226
   0.37246557  0.00032440  0.00045391
   0.43913747  0.13361994  0.00025834
   0.97244982  0.40030936  0.00054761
   0.03912498  0.53363679  0.00057341
   0.37241618  0.40032948  0.00000000
   0.43909960  0.53363898  0.00023241
   0.57244368  0.00031213  0.00055958
   0.63911021  0.13363175  0.00054727
   0.97245270  0.60030565  0.00064029
   0.03912449  0.73364036  0.00065451
   0.57243347  0.60030624  0.00040289
   0.63911189  0.73364188  0.00052791
   0.17245463  0.40031823  0.00028904
   0.23912018  0.53363655  0.00037851
   0.37245975  0.20029599  0.00008900
   0.43910710  0.33367342  0.00005576
   0.17245216  0.60031151  0.00052434
   0.23912337  0.73363857  0.00057513
   0.57243108  0.20028917  0.00041330
   0.63911277  0.33361863  0.00046238
   0.37243981  0.60030802  0.00036284
   0.43911609  0.73363786  0.00049419
   0.57246936  0.40032050  0.00033992
   0.63911941  0.53365087  0.00045961
   0.77244572  0.00031543  0.00059616
   0.83911628  0.13364020  0.00057531
   0.77244051  0.20030743  0.00058103
   0.83912024  0.33363573  0.00058547
   0.77244632  0.40029837  0.00058298
   0.83911898  0.53363396  0.00062110
   0.77245614  0.60030817  0.00059571
   0.83911503  0.73364318  0.00063151
   0.97245531  0.80030558  0.00065223
   0.03911471  0.93364329  0.00059805
   0.17245797  0.80031221  0.00062337
   0.23913455  0.93364719  0.00054485
   0.37245140  0.80031667  0.00055140
   0.43912449  0.93364477  0.00054143
   0.57244110  0.80031005  0.00053453
   0.63911507  0.93363899  0.00058764
   0.77244510  0.80031319  0.00060206
   0.83911661  0.93364434  0.00060683
   0.37302101  0.25122688  0.12999210
   0.42087980  0.18931315  0.13256898
   0.32515698  0.31316719  0.12761391
 
 position of ions in cartesian coordinates  (Angst):
  11.98347958  0.00342433  0.01416777
  -0.34154264  1.42664989  0.01100432
   2.12354700  0.00315355  0.01249070
   2.12325634  1.42652621  0.00641170
  10.75098721  2.13818970  0.01213047
  -1.57382270  3.56123457  0.01110375
   0.89078307  2.13853702  0.00547917
   0.89099273  3.56146885  0.00180651
   4.58863896  0.00346260  0.01134782
   4.58893648  1.42622757  0.00645846
   9.51853763  4.27280730  0.01369027
  -2.80632132  5.69591267  0.01433526
   2.12299894  4.27302204  0.00000000
   2.12335237  5.69593607  0.00581036
   7.05344483  0.00333155  0.01398950
   7.05352764  1.42635365  0.01368187
   8.28609598  6.40752033  0.01600723
  -4.03884931  7.83070339  0.01636283
   3.35585531  6.40752662  0.01007237
   3.35598594  7.83071962  0.01319763
  -0.34145776  4.27290193  0.00722612
  -0.34137895  5.69591010  0.00946273
   3.35624236  2.13791198  0.00222492
   3.35573251  3.56155103  0.00139405
  -1.57394684  6.40758280  0.01310850
  -1.57385216  7.83068434  0.01437823
   5.82093107  2.13783916  0.01033241
   5.82114012  3.56096622  0.01155939
   0.89092245  6.40754561  0.00907111
   0.89106251  7.83067670  0.01235474
   4.58870974  4.27292622  0.00849795
   4.58852320  5.69606300  0.01149026
   9.51844972  0.00336679  0.01490402
   9.51855036  1.42644387  0.01438264
   8.28593477  2.13803408  0.01452582
   8.28612680  3.56114872  0.01463668
   7.05356221  4.27268994  0.01457444
   7.05362213  5.69588251  0.01552751
   5.82112285  6.40754723  0.01489279
   5.82101669  7.83073350  0.01578780
   7.05362858  8.54227219  0.01630582
  -5.27148792  9.96548729  0.01495127
  -2.80637951  8.54234295  0.01558431
  -2.80626749  9.96552896  0.01362126
  -0.34148805  8.54239058  0.01378498
  -0.34137657  9.96550309  0.01353576
   2.12342586  8.54231992  0.01336337
   2.12354296  9.96544135  0.01469111
   4.58845581  8.54235337  0.01505154
   4.58852904  9.96549848  0.01517076
   3.04929830  2.68153618  3.24980262
   4.02070129  2.02068374  3.31422448
   2.07766701  3.34267235  3.19034775
 


--------------------------------------------------------------------------------------------------------


 k-point   1 :   0.0000 0.0000 0.0000  plane waves:  236157

 maximum and minimum number of plane-waves per node :      8440     8428

 maximum number of plane-waves:    236157
 maximum index in each direction: 
   IXMAX=   31   IYMAX=   31   IZMAX=   64
   IXMIN=  -31   IYMIN=  -31   IZMIN=  -64


 parallel 3D FFT for wavefunctions:
    minimum data exchange during FFTs selected (reduces bandwidth)
 parallel 3D FFT for charge:
    minimum data exchange during FFTs selected (reduces bandwidth)


 total amount of memory used by VASP MPI-rank0   100580. kBytes
=======================================================================

   base      :      30000. kBytes
   nonl-proj :       8229. kBytes
   fftplans  :      18352. kBytes
   grid      :      30208. kBytes
   one-center:          6. kBytes
   wavefun   :      13785. kBytes
 
     INWAV:  cpu time    0.0000: real time    0.0000
 Broyden mixing: mesh for mixing (old mesh)
   NGX = 63   NGY = 63   NGZ =129
  (NGX  =256   NGY  =256   NGZ  =540)
  gives a total of 512001 points

 initial charge density was supplied:
 charge density of overlapping atoms calculated
 number of electron     216.0000000 magnetization 
 keeping initial charge density in first step


--------------------------------------------------------------------------------------------------------


 Maximum index for augmentation-charges          471 (set IRDMAX)


--------------------------------------------------------------------------------------------------------


 First call to EWALD:  gamma=   0.119
 Maximum number of real-space cells 4x 4x 2
 Maximum number of reciprocal cells 2x 2x 4

    FEWALD:  cpu time    0.0038: real time    0.0039


--------------------------------------- Iteration      1(   1)  ---------------------------------------


vdW kernel read from vdw_kernel.bindat
  0.0000  0.2424  0.5071  0.7962  1.1119  1.4567  1.8333  2.2446  2.6937  3.1842
  3.7199  4.3049  4.9438  5.6415  6.4036  7.2358  8.1446  9.1372 10.2212 11.4050
 12.6979 14.1099 15.6519 17.3360 19.1751 21.1837 23.3773 25.7729 28.3892 31.2465
 34.3669 37.7748 41.4965 45.5611 50.0000
 
    POTLOK:  cpu time    4.8729: real time    4.9256
    SETDIJ:  cpu time    0.0552: real time    0.0562
    TRIAL :  cpu time    2.1204: real time    2.2296
    CORREC:  cpu time    0.0002: real time    0.0003
    --------------------------------------------
      LOOP:  cpu time    7.0521: real time    7.2587

 eigenvalue-minimisations  :   288
 total energy-change (2. order) : 0.2765762E+04  (-0.1020307E+05)
 number of electron     216.0000000 magnetization 
 augmentation part      216.0000000 magnetization 

 Free energy of the ion-electron system (eV)
  ---------------------------------------------------
  alpha Z        PSCENC =        47.94900195
  Ewald energy   TEWEN  =     47374.49367880
  -Hartree energ DENC   =    -53443.19186423
  -exchange      EXHF   =         0.00000000
  -V(xc)+E(xc)   XCENC  =       412.50330509
  PAW double counting   =      6548.36373666    -6261.59511771
  entropy T*S    EENTRO =        -0.00000000
  eigenvalues    EBANDS =      -333.70650728
  atomic energy  EATOM  =      8420.94593319
  ---------------------------------------------------
  free energy    TOTEN  =      2765.76216648 eV

  energy without entropy =     2765.76216648  energy(sigma->0) =     2765.76216648


--------------------------------------------------------------------------------------------------------




--------------------------------------- Iteration      1(   2)  ---------------------------------------


    TRIAL :  cpu time    2.8647: real time    2.8923
    CORREC:  cpu time    0.0001: real time    0.0001
    --------------------------------------------
      LOOP:  cpu time    2.8862: real time    2.9164

 eigenvalue-minimisations  :   448
 total energy-change (2. order) :-0.2327667E+04  (-0.2182166E+04)
 number of electron     216.0000000 magnetization 
 augmentation part      216.0000000 magnetization 

 Free energy of the ion-electron system (eV)
  ---------------------------------------------------
  alpha Z        PSCENC =        47.94900195
  Ewald energy   TEWEN  =     47374.49367880
  -Hartree energ DENC   =    -53443.19186423
  -exchange      EXHF   =         0.00000000
  -V(xc)+E(xc)   XCENC  =       412.50330509
  PAW double counting   =      6548.36373666    -6261.59511771
  entropy T*S    EENTRO =        -0.00000000
  eigenvalues    EBANDS =     -2661.37330202
  atomic energy  EATOM  =      8420.94593319
  ---------------------------------------------------
  free energy    TOTEN  =       438.09537174 eV

  energy without entropy =      438.09537174  energy(sigma->0) =      438.09537174


--------------------------------------------------------------------------------------------------------




--------------------------------------- Iteration      1(   3)  ---------------------------------------


    TRIAL :  cpu time    2.4170: real time    2.4391
    CORREC:  cpu time    0.0001: real time    0.0001
    --------------------------------------------
      LOOP:  cpu time    2.4804: real time    2.5042

 eigenvalue-minimisations  :   352
 total energy-change (2. order) :-0.8186697E+03  (-0.8046923E+03)
 number of electron     216.0000000 magnetization 
 augmentation part      216.0000000 magnetization 

 Free energy of the ion-electron system (eV)
  ---------------------------------------------------
  alpha Z        PSCENC =        47.94900195
  Ewald energy   TEWEN  =     47374.49367880
  -Hartree energ DENC   =    -53443.19186423
  -exchange      EXHF   =         0.00000000
  -V(xc)+E(xc)   XCENC  =       412.50330509
  PAW double counting   =      6548.36373666    -6261.59511771
  entropy T*S    EENTRO =        -0.00000000
  eigenvalues    EBANDS =     -3480.04300248
  atomic energy  EATOM  =      8420.94593319
  ---------------------------------------------------
  free energy    TOTEN  =      -380.57432872 eV

  energy without entropy =     -380.57432872  energy(sigma->0) =     -380.57432872


--------------------------------------------------------------------------------------------------------




--------------------------------------- Iteration      1(   4)  ---------------------------------------


    TRIAL :  cpu time    2.2579: real time    2.2811
    CORREC:  cpu time    0.0001: real time    0.0001
    --------------------------------------------
      LOOP:  cpu time    2.2964: real time    2.3239

 eigenvalue-minimisations  :   328
 total energy-change (2. order) :-0.7743497E+02  (-0.7631660E+02)
 number of electron     216.0000000 magnetization 
 augmentation part      216.0000000 magnetization 

 Free energy of the ion-electron system (eV)
  ---------------------------------------------------
  alpha Z        PSCENC =        47.94900195
  Ewald energy   TEWEN  =     47374.49367880
  -Hartree energ DENC   =    -53443.19186423
  -exchange      EXHF   =         0.00000000
  -V(xc)+E(xc)   XCENC  =       412.50330509
  PAW double counting   =      6548.36373666    -6261.59511771
  entropy T*S    EENTRO =        -0.00000000
  eigenvalues    EBANDS =     -3557.47797225
  atomic energy  EATOM  =      8420.94593319
  ---------------------------------------------------
  free energy    TOTEN  =      -458.00929849 eV

  energy without entropy =     -458.00929849  energy(sigma->0) =     -458.00929849


--------------------------------------------------------------------------------------------------------




--------------------------------------- Iteration      1(   5)  ---------------------------------------


    TRIAL :  cpu time    2.3421: real time    2.3628
    CORREC:  cpu time    0.0001: real time    0.0001
    CHARGE:  cpu time    0.1796: real time    0.1818
    --------------------------------------------
      LOOP:  cpu time    2.5685: real time    2.5945

 eigenvalue-minimisations  :   344
 total energy-change (2. order) :-0.2336354E+01  (-0.2318463E+01)
 number of electron     216.0000000 magnetization 
 augmentation part       -0.2328875 magnetization 

 Free energy of the ion-electron system (eV)
  ---------------------------------------------------
  alpha Z        PSCENC =        47.94900195
  Ewald energy   TEWEN  =     47374.49367880
  -Hartree energ DENC   =    -53443.19186423
  -exchange      EXHF   =         0.00000000
  -V(xc)+E(xc)   XCENC  =       412.50330509
  PAW double counting   =      6548.36373666    -6261.59511771
  entropy T*S    EENTRO =        -0.00000000
  eigenvalues    EBANDS =     -3559.81432582
  atomic energy  EATOM  =      8420.94593319
  ---------------------------------------------------
  free energy    TOTEN  =      -460.34565206 eV

  energy without entropy =     -460.34565206  energy(sigma->0) =     -460.34565206


--------------------------------------------------------------------------------------------------------




--------------------------------------- Iteration      1(   6)  ---------------------------------------


    POTLOK:  cpu time    4.5790: real time    4.6171
    SETDIJ:  cpu time    0.0531: real time    0.0533
    TRIAL :  cpu time    1.1611: real time    1.1724
    CORREC:  cpu time    5.0389: real time    5.0919
    CHARGE:  cpu time    0.1770: real time    0.1787
    --------------------------------------------
      LOOP:  cpu time   11.0517: real time   11.1683

 eigenvalue-minimisations  :     0
 total energy-change (2. order) : 0.5213401E+02  (-0.1629455E+02)
 number of electron     216.0000000 magnetization 
 augmentation part       -0.3283875 magnetization 

 Free energy of the ion-electron system (eV)
  ---------------------------------------------------
  alpha Z        PSCENC =        47.94900195
  Ewald energy   TEWEN  =     47374.49367880
  -Hartree energ DENC   =    -54885.73991464
  -exchange      EXHF   =         0.00000000
  -V(xc)+E(xc)   XCENC  =       459.99721096
  PAW double counting   =     80506.47951752   -80226.09870243
  entropy T*S    EENTRO =        -0.00000000
  eigenvalues    EBANDS =     -2106.23836500
  atomic energy  EATOM  =      8420.94593319
  ---------------------------------------------------
  free energy    TOTEN  =      -408.21163963 eV

  energy without entropy =     -408.21163963  energy(sigma->0) =     -408.21163963


--------------------------------------------------------------------------------------------------------




--------------------------------------- Iteration      1(   7)  ---------------------------------------


    POTLOK:  cpu time    4.5955: real time    4.6270
    SETDIJ:  cpu time    0.0531: real time    0.0533
    TRIAL :  cpu time    1.1566: real time    1.1691
    CORREC:  cpu time    5.1017: real time    5.1391
    CHARGE:  cpu time    0.1770: real time    0.1788
    --------------------------------------------
      LOOP:  cpu time   11.1375: real time   11.2217

 eigenvalue-minimisations  :     0
 total energy-change (2. order) :-0.1633756E+02  (-0.1809024E+01)
 number of electron     216.0000000 magnetization 
 augmentation part       -0.3751352 magnetization 

 Free energy of the ion-electron system (eV)
  ---------------------------------------------------
  alpha Z        PSCENC =        47.94900195
  Ewald energy   TEWEN  =     47374.49367880
  -Hartree energ DENC   =    -54359.30500573
  -exchange      EXHF   =         0.00000000
  -V(xc)+E(xc)   XCENC  =       442.68190371
  PAW double counting   =     95654.41093131   -95371.30229663
  entropy T*S    EENTRO =        -0.00000000
  eigenvalues    EBANDS =     -2634.42334996
  atomic energy  EATOM  =      8420.94593319
  ---------------------------------------------------
  free energy    TOTEN  =      -424.54920336 eV

  energy without entropy =     -424.54920336  energy(sigma->0) =     -424.54920336


--------------------------------------------------------------------------------------------------------




--------------------------------------- Iteration      1(   8)  ---------------------------------------


    POTLOK:  cpu time    4.5890: real time    4.6387
    SETDIJ:  cpu time    0.0530: real time    0.0532
    TRIAL :  cpu time    1.1486: real time    1.1674
    CORREC:  cpu time    5.0481: real time    5.1102
    CHARGE:  cpu time    0.1771: real time    0.1790
    --------------------------------------------
      LOOP:  cpu time   11.0834: real time   11.2231

 eigenvalue-minimisations  :     0
 total energy-change (2. order) :-0.1808937E+01  (-0.5045257E+00)
 number of electron     216.0000000 magnetization 
 augmentation part       -0.3929844 magnetization 

 Free energy of the ion-electron system (eV)
  ---------------------------------------------------
  alpha Z        PSCENC =        47.94900195
  Ewald energy   TEWEN  =     47374.49367880
  -Hartree energ DENC   =    -54338.32910286
  -exchange      EXHF   =         0.00000000
  -V(xc)+E(xc)   XCENC  =       442.27839696
  PAW double counting   =     99733.47270834   -99450.04088453
  entropy T*S    EENTRO =        -0.00000000
  eigenvalues    EBANDS =     -2657.12787183
  atomic energy  EATOM  =      8420.94593319
  ---------------------------------------------------
  free energy    TOTEN  =      -426.35813997 eV

  energy without entropy =     -426.35813997  energy(sigma->0) =     -426.35813997


--------------------------------------------------------------------------------------------------------




--------------------------------------- Iteration      1(   9)  ---------------------------------------


    POTLOK:  cpu time    4.6008: real time    4.6328
    SETDIJ:  cpu time    0.0532: real time    0.0534
    TRIAL :  cpu time    1.1584: real time    1.1699
    CORREC:  cpu time    5.0779: real time    5.1199
    CHARGE:  cpu time    0.1772: real time    0.1792
    --------------------------------------------
      LOOP:  cpu time   11.1057: real time   11.1937

 eigenvalue-minimisations  :     0
 total energy-change (2. order) :-0.5043986E+00  (-0.1970430E+00)
 number of electron     216.0000000 magnetization 
 augmentation part       -0.4016766 magnetization 

 Free energy of the ion-electron system (eV)
  ---------------------------------------------------
  alpha Z        PSCENC =        47.94900195
  Ewald energy   TEWEN  =     47374.49367880
  -Hartree energ DENC   =    -54351.48148926
  -exchange      EXHF   =         0.00000000
  -V(xc)+E(xc)   XCENC  =       442.43683958
  PAW double counting   =    102447.32383554  -102163.74797884
  entropy T*S    EENTRO =        -0.00000000
  eigenvalues    EBANDS =     -2644.78235950
  atomic energy  EATOM  =      8420.94593319
  ---------------------------------------------------
  free energy    TOTEN  =      -426.86253853 eV

  energy without entropy =     -426.86253853  energy(sigma->0) =     -426.86253853


--------------------------------------------------------------------------------------------------------




--------------------------------------- Iteration      1(  10)  ---------------------------------------


    POTLOK:  cpu time    4.6033: real time    4.6402
    SETDIJ:  cpu time    0.0530: real time    0.0532
    TRIAL :  cpu time    1.1538: real time    1.1677
    CORREC:  cpu time    5.0594: real time    5.1058
    CHARGE:  cpu time    0.1773: real time    0.1794
    --------------------------------------------
      LOOP:  cpu time   11.0956: real time   11.1975

 eigenvalue-minimisations  :     0
 total energy-change (2. order) :-0.1964666E+00  (-0.9459035E-01)
 number of electron     216.0000000 magnetization 
 augmentation part       -0.4022309 magnetization 

 Free energy of the ion-electron system (eV)
  ---------------------------------------------------
  alpha Z        PSCENC =        47.94900195
  Ewald energy   TEWEN  =     47374.49367880
  -Hartree energ DENC   =    -54347.92041331
  -exchange      EXHF   =         0.00000000
  -V(xc)+E(xc)   XCENC  =       442.28395088
  PAW double counting   =    103015.65698871  -102731.99127462
  entropy T*S    EENTRO =        -0.00000000
  eigenvalues    EBANDS =     -2648.47687079
  atomic energy  EATOM  =      8420.94593319
  ---------------------------------------------------
  free energy    TOTEN  =      -427.05900517 eV

  energy without entropy =     -427.05900517  energy(sigma->0) =     -427.05900517


--------------------------------------------------------------------------------------------------------




--------------------------------------- Iteration      1(  11)  ---------------------------------------


    POTLOK:  cpu time    4.5878: real time    4.6240
    SETDIJ:  cpu time    0.0531: real time    0.0533
    TRIAL :  cpu time    1.1563: real time    1.1699
    CORREC:  cpu time    5.0794: real time    5.1215
    CHARGE:  cpu time    0.1772: real time    0.1792
    --------------------------------------------
      LOOP:  cpu time   11.0833: real time   11.1831

 eigenvalue-minimisations  :     0
 total energy-change (2. order) :-0.9408530E-01  (-0.3796400E-01)
 number of electron     216.0000000 magnetization 
 augmentation part       -0.4013970 magnetization 

 Free energy of the ion-electron system (eV)
  ---------------------------------------------------
  alpha Z        PSCENC =        47.94900195
  Ewald energy   TEWEN  =     47374.49367880
  -Hartree energ DENC   =    -54340.32853538
  -exchange      EXHF   =         0.00000000
  -V(xc)+E(xc)   XCENC  =       442.16456480
  PAW double counting   =    102560.54971091  -102276.88872529
  entropy T*S    EENTRO =        -0.00000000
  eigenvalues    EBANDS =     -2656.03871946
  atomic energy  EATOM  =      8420.94593319
  ---------------------------------------------------
  free energy    TOTEN  =      -427.15309046 eV

  energy without entropy =     -427.15309046  energy(sigma->0) =     -427.15309046


--------------------------------------------------------------------------------------------------------




--------------------------------------- Iteration      1(  12)  ---------------------------------------


    POTLOK:  cpu time    4.5957: real time    4.6320
    SETDIJ:  cpu time    0.0531: real time    0.0532
    TRIAL :  cpu time    1.1563: real time    1.1697
    CORREC:  cpu time    5.0585: real time    5.1014
    CHARGE:  cpu time    0.1788: real time    0.1810
    --------------------------------------------
      LOOP:  cpu time   11.0688: real time   11.1771

 eigenvalue-minimisations  :     0
 total energy-change (2. order) :-0.3785735E-01  (-0.1164157E-01)
 number of electron     216.0000000 magnetization 
 augmentation part       -0.4010325 magnetization 

 Free energy of the ion-electron system (eV)
  ---------------------------------------------------
  alpha Z        PSCENC =        47.94900195
  Ewald energy   TEWEN  =     47374.49367880
  -Hartree energ DENC   =    -54336.60635136
  -exchange      EXHF   =         0.00000000
  -V(xc)+E(xc)   XCENC  =       442.08439595
  PAW double counting   =    102170.37876692  -101886.74287314
  entropy T*S    EENTRO =        -0.00000000
  eigenvalues    EBANDS =     -2659.69350014
  atomic energy  EATOM  =      8420.94593319
  ---------------------------------------------------
  free energy    TOTEN  =      -427.19094781 eV

  energy without entropy =     -427.19094781  energy(sigma->0) =     -427.19094781


--------------------------------------------------------------------------------------------------------




--------------------------------------- Iteration      1(  13)  ---------------------------------------


    POTLOK:  cpu time    4.6130: real time    4.6457
    SETDIJ:  cpu time    0.0532: real time    0.0533
    TRIAL :  cpu time    1.1587: real time    1.1700
    CORREC:  cpu time    5.0465: real time    5.0890
    CHARGE:  cpu time    0.1776: real time    0.1797
    --------------------------------------------
      LOOP:  cpu time   11.1055: real time   11.1957

 eigenvalue-minimisations  :     0
 total energy-change (2. order) :-0.1163447E-01  (-0.3499772E-02)
 number of electron     216.0000000 magnetization 
 augmentation part       -0.4003211 magnetization 

 Free energy of the ion-electron system (eV)
  ---------------------------------------------------
  alpha Z        PSCENC =        47.94900195
  Ewald energy   TEWEN  =     47374.49367880
  -Hartree energ DENC   =    -54336.29127236
  -exchange      EXHF   =         0.00000000
  -V(xc)+E(xc)   XCENC  =       442.07122951
  PAW double counting   =    102009.72189265  -101726.09934078
  entropy T*S    EENTRO =        -0.00000000
  eigenvalues    EBANDS =     -2659.99370525
  atomic energy  EATOM  =      8420.94593319
  ---------------------------------------------------
  free energy    TOTEN  =      -427.20258228 eV

  energy without entropy =     -427.20258228  energy(sigma->0) =     -427.20258228


--------------------------------------------------------------------------------------------------------




--------------------------------------- Iteration      1(  14)  ---------------------------------------


    POTLOK:  cpu time    4.6251: real time    4.6616
    SETDIJ:  cpu time    0.0530: real time    0.0532
    TRIAL :  cpu time    1.1587: real time    1.1726
    CORREC:  cpu time    5.0762: real time    5.1178
    CHARGE:  cpu time    0.1773: real time    0.1791
    --------------------------------------------
      LOOP:  cpu time   11.1516: real time   11.2569

 eigenvalue-minimisations  :     0
 total energy-change (2. order) :-0.3500482E-02  (-0.1340270E-02)
 number of electron     216.0000000 magnetization 
 augmentation part       -0.3998838 magnetization 

 Free energy of the ion-electron system (eV)
  ---------------------------------------------------
  alpha Z        PSCENC =        47.94900195
  Ewald energy   TEWEN  =     47374.49367880
  -Hartree energ DENC   =    -54336.48018111
  -exchange      EXHF   =         0.00000000
  -V(xc)+E(xc)   XCENC  =       442.07255339
  PAW double counting   =    101984.14324982  -101700.52620147
  entropy T*S    EENTRO =        -0.00000000
  eigenvalues    EBANDS =     -2659.80411735
  atomic energy  EATOM  =      8420.94593319
  ---------------------------------------------------
  free energy    TOTEN  =      -427.20608276 eV

  energy without entropy =     -427.20608276  energy(sigma->0) =     -427.20608276


--------------------------------------------------------------------------------------------------------




--------------------------------------- Iteration      1(  15)  ---------------------------------------


    POTLOK:  cpu time    4.6304: real time    4.6621
    SETDIJ:  cpu time    0.0532: real time    0.0534
    TRIAL :  cpu time    1.1573: real time    1.1687
    CORREC:  cpu time    5.0848: real time    5.1233
    CHARGE:  cpu time    0.1779: real time    0.1799
    --------------------------------------------
      LOOP:  cpu time   11.1583: real time   11.2460

 eigenvalue-minimisations  :     0
 total energy-change (2. order) :-0.1342349E-02  (-0.7297128E-03)
 number of electron     216.0000000 magnetization 
 augmentation part       -0.3993938 magnetization 

 Free energy of the ion-electron system (eV)
  ---------------------------------------------------
  alpha Z        PSCENC =        47.94900195
  Ewald energy   TEWEN  =     47374.49367880
  -Hartree energ DENC   =    -54336.19980176
  -exchange      EXHF   =         0.00000000
  -V(xc)+E(xc)   XCENC  =       442.05603200
  PAW double counting   =    101963.49377254  -101679.87552682
  entropy T*S    EENTRO =        -0.00000000
  eigenvalues    EBANDS =     -2660.07051503
  atomic energy  EATOM  =      8420.94593319
  ---------------------------------------------------
  free energy    TOTEN  =      -427.20742511 eV

  energy without entropy =     -427.20742511  energy(sigma->0) =     -427.20742511


--------------------------------------------------------------------------------------------------------




--------------------------------------- Iteration      1(  16)  ---------------------------------------


    POTLOK:  cpu time    4.6156: real time    4.6588
    SETDIJ:  cpu time    0.0535: real time    0.0537
    TRIAL :  cpu time    1.1567: real time    1.1682
    CORREC:  cpu time    5.0756: real time    5.1134
    CHARGE:  cpu time    0.1772: real time    0.1790
    --------------------------------------------
      LOOP:  cpu time   11.1276: real time   11.2234

 eigenvalue-minimisations  :     0
 total energy-change (2. order) :-0.7315605E-03  (-0.4043779E-03)
 number of electron     216.0000000 magnetization 
 augmentation part       -0.3992214 magnetization 

 Free energy of the ion-electron system (eV)
  ---------------------------------------------------
  alpha Z        PSCENC =        47.94900195
  Ewald energy   TEWEN  =     47374.49367880
  -Hartree energ DENC   =    -54336.61117329
  -exchange      EXHF   =         0.00000000
  -V(xc)+E(xc)   XCENC  =       442.06856600
  PAW double counting   =    101893.27088617  -101609.65414408
  entropy T*S    EENTRO =        -0.00000000
  eigenvalues    EBANDS =     -2659.67090543
  atomic energy  EATOM  =      8420.94593319
  ---------------------------------------------------
  free energy    TOTEN  =      -427.20815667 eV

  energy without entropy =     -427.20815667  energy(sigma->0) =     -427.20815667


--------------------------------------------------------------------------------------------------------




--------------------------------------- Iteration      1(  17)  ---------------------------------------


    POTLOK:  cpu time    4.6112: real time    4.6446
    SETDIJ:  cpu time    0.0531: real time    0.0533
    TRIAL :  cpu time    1.1587: real time    1.1702
    CORREC:  cpu time    5.0466: real time    5.0839
    CHARGE:  cpu time    0.1771: real time    0.1788
    --------------------------------------------
      LOOP:  cpu time   11.0960: real time   11.1821

 eigenvalue-minimisations  :     0
 total energy-change (2. order) :-0.4055546E-03  (-0.1714352E-03)
 number of electron     216.0000000 magnetization 
 augmentation part       -0.3993578 magnetization 

 Free energy of the ion-electron system (eV)
  ---------------------------------------------------
  alpha Z        PSCENC =        47.94900195
  Ewald energy   TEWEN  =     47374.49367880
  -Hartree energ DENC   =    -54336.91011351
  -exchange      EXHF   =         0.00000000
  -V(xc)+E(xc)   XCENC  =       442.07553168
  PAW double counting   =    101830.50772612  -101546.89058293
  entropy T*S    EENTRO =        -0.00000000
  eigenvalues    EBANDS =     -2659.37973754
  atomic energy  EATOM  =      8420.94593319
  ---------------------------------------------------
  free energy    TOTEN  =      -427.20856222 eV

  energy without entropy =     -427.20856222  energy(sigma->0) =     -427.20856222


--------------------------------------------------------------------------------------------------------




--------------------------------------- Iteration      1(  18)  ---------------------------------------


    POTLOK:  cpu time    4.6025: real time    4.6359
    SETDIJ:  cpu time    0.0531: real time    0.0532
    TRIAL :  cpu time    1.1564: real time    1.1697
    CORREC:  cpu time    5.0632: real time    5.1036
    CHARGE:  cpu time    0.1768: real time    0.1789
    --------------------------------------------
      LOOP:  cpu time   11.1526: real time   11.2439

 eigenvalue-minimisations  :     0
 total energy-change (2. order) :-0.1715468E-03  (-0.6797170E-04)
 number of electron     216.0000000 magnetization 
 augmentation part       -0.3995338 magnetization 

 Free energy of the ion-electron system (eV)
  ---------------------------------------------------
  alpha Z        PSCENC =        47.94900195
  Ewald energy   TEWEN  =     47374.49367880
  -Hartree energ DENC   =    -54336.91471281
  -exchange      EXHF   =         0.00000000
  -V(xc)+E(xc)   XCENC  =       442.07552137
  PAW double counting   =    101823.58309991  -101539.96468701
  entropy T*S    EENTRO =        -0.00000000
  eigenvalues    EBANDS =     -2659.37656918
  atomic energy  EATOM  =      8420.94593319
  ---------------------------------------------------
  free energy    TOTEN  =      -427.20873377 eV

  energy without entropy =     -427.20873377  energy(sigma->0) =     -427.20873377


--------------------------------------------------------------------------------------------------------




--------------------------------------- Iteration      1(  19)  ---------------------------------------


    POTLOK:  cpu time    4.6200: real time    4.6512
    SETDIJ:  cpu time    0.0531: real time    0.0532
    TRIAL :  cpu time    1.1553: real time    1.1689
    CORREC:  cpu time    5.0992: real time    5.1477
    CHARGE:  cpu time    0.1778: real time    0.1796
    --------------------------------------------
      LOOP:  cpu time   11.1544: real time   11.2517

 eigenvalue-minimisations  :     0
 total energy-change (2. order) :-0.6760398E-04  (-0.3097149E-04)
 number of electron     216.0000000 magnetization 
 augmentation part       -0.3996552 magnetization 

 Free energy of the ion-electron system (eV)
  ---------------------------------------------------
  alpha Z        PSCENC =        47.94900195
  Ewald energy   TEWEN  =     47374.49367880
  -Hartree energ DENC   =    -54336.92984372
  -exchange      EXHF   =         0.00000000
  -V(xc)+E(xc)   XCENC  =       442.07650424
  PAW double counting   =    101842.29588197  -101558.67695259
  entropy T*S    EENTRO =        -0.00000000
  eigenvalues    EBANDS =     -2659.36300523
  atomic energy  EATOM  =      8420.94593319
  ---------------------------------------------------
  free energy    TOTEN  =      -427.20880138 eV

  energy without entropy =     -427.20880138  energy(sigma->0) =     -427.20880138


--------------------------------------------------------------------------------------------------------




--------------------------------------- Iteration      1(  20)  ---------------------------------------


    POTLOK:  cpu time    4.6121: real time    4.6437
    SETDIJ:  cpu time    0.0532: real time    0.0533
    TRIAL :  cpu time    1.1574: real time    1.1686
    CORREC:  cpu time    5.0878: real time    5.1265
    CHARGE:  cpu time    0.1784: real time    0.1802
    --------------------------------------------
      LOOP:  cpu time   11.1351: real time   11.2204

 eigenvalue-minimisations  :     0
 total energy-change (2. order) :-0.3065086E-04  (-0.1734073E-04)
 number of electron     216.0000000 magnetization 
 augmentation part       -0.3996832 magnetization 

 Free energy of the ion-electron system (eV)
  ---------------------------------------------------
  alpha Z        PSCENC =        47.94900195
  Ewald energy   TEWEN  =     47374.49367880
  -Hartree energ DENC   =    -54336.88971585
  -exchange      EXHF   =         0.00000000
  -V(xc)+E(xc)   XCENC  =       442.07520637
  PAW double counting   =    101858.75773039  -101575.13854262
  entropy T*S    EENTRO =        -0.00000000
  eigenvalues    EBANDS =     -2659.40212427
  atomic energy  EATOM  =      8420.94593319
  ---------------------------------------------------
  free energy    TOTEN  =      -427.20883203 eV

  energy without entropy =     -427.20883203  energy(sigma->0) =     -427.20883203


--------------------------------------------------------------------------------------------------------




--------------------------------------- Iteration      1(  21)  ---------------------------------------


    POTLOK:  cpu time    4.5937: real time    4.6264
    SETDIJ:  cpu time    0.0531: real time    0.0533
    TRIAL :  cpu time    1.1764: real time    1.1891
    CORREC:  cpu time    5.0633: real time    5.1039
    CHARGE:  cpu time    0.1773: real time    0.1791
    --------------------------------------------
      LOOP:  cpu time   11.1230: real time   11.2148

 eigenvalue-minimisations  :     0
 total energy-change (2. order) :-0.1718920E-04  (-0.9654630E-05)
 number of electron     216.0000000 magnetization 
 augmentation part       -0.3996689 magnetization 

 Free energy of the ion-electron system (eV)
  ---------------------------------------------------
  alpha Z        PSCENC =        47.94900195
  Ewald energy   TEWEN  =     47374.49367880
  -Hartree energ DENC   =    -54336.86528975
  -exchange      EXHF   =         0.00000000
  -V(xc)+E(xc)   XCENC  =       442.07491092
  PAW double counting   =    101867.00638342  -101583.38745678
  entropy T*S    EENTRO =        -0.00000000
  eigenvalues    EBANDS =     -2659.42601098
  atomic energy  EATOM  =      8420.94593319
  ---------------------------------------------------
  free energy    TOTEN  =      -427.20884922 eV

  energy without entropy =     -427.20884922  energy(sigma->0) =     -427.20884922


--------------------------------------------------------------------------------------------------------




--------------------------------------- Iteration      1(  22)  ---------------------------------------


    POTLOK:  cpu time    4.6088: real time    4.6400
    SETDIJ:  cpu time    0.0547: real time    0.0548
    TRIAL :  cpu time    1.1580: real time    1.1703
    CORREC:  cpu time    5.0680: real time    5.1069
    CHARGE:  cpu time    0.1771: real time    0.1790
    --------------------------------------------
      LOOP:  cpu time   11.1076: real time   11.1962

 eigenvalue-minimisations  :     0
 total energy-change (2. order) :-0.9621712E-05  (-0.3945070E-05)
 number of electron     216.0000000 magnetization 
 augmentation part       -0.3996489 magnetization 

 Free energy of the ion-electron system (eV)
  ---------------------------------------------------
  alpha Z        PSCENC =        47.94900195
  Ewald energy   TEWEN  =     47374.49367880
  -Hartree energ DENC   =    -54336.82906515
  -exchange      EXHF   =         0.00000000
  -V(xc)+E(xc)   XCENC  =       442.07414895
  PAW double counting   =    101867.73540194  -101584.11666638
  entropy T*S    EENTRO =        -0.00000000
  eigenvalues    EBANDS =     -2659.46129214
  atomic energy  EATOM  =      8420.94593319
  ---------------------------------------------------
  free energy    TOTEN  =      -427.20885884 eV

  energy without entropy =     -427.20885884  energy(sigma->0) =     -427.20885884


--------------------------------------------------------------------------------------------------------




--------------------------------------- Iteration      1(  23)  ---------------------------------------


    POTLOK:  cpu time    4.6070: real time    4.6404
    SETDIJ:  cpu time    0.0531: real time    0.0533
    TRIAL :  cpu time    1.1578: real time    1.1695
    CORREC:  cpu time    5.0647: real time    5.1032
    CHARGE:  cpu time    0.1779: real time    0.1797
    --------------------------------------------
      LOOP:  cpu time   11.1457: real time   11.2322

 eigenvalue-minimisations  :     0
 total energy-change (2. order) :-0.3980778E-05  (-0.1444837E-05)
 number of electron     216.0000000 magnetization 
 augmentation part       -0.3996300 magnetization 

 Free energy of the ion-electron system (eV)
  ---------------------------------------------------
  alpha Z        PSCENC =        47.94900195
  Ewald energy   TEWEN  =     47374.49367880
  -Hartree energ DENC   =    -54336.80854788
  -exchange      EXHF   =         0.00000000
  -V(xc)+E(xc)   XCENC  =       442.07370618
  PAW double counting   =    101865.93200009  -101582.31328883
  entropy T*S    EENTRO =        -0.00000000
  eigenvalues    EBANDS =     -2659.48134634
  atomic energy  EATOM  =      8420.94593319
  ---------------------------------------------------
  free energy    TOTEN  =      -427.20886282 eV

  energy without entropy =     -427.20886282  energy(sigma->0) =     -427.20886282


--------------------------------------------------------------------------------------------------------




--------------------------------------- Iteration      1(  24)  ---------------------------------------


    POTLOK:  cpu time    4.5857: real time    4.6193
    SETDIJ:  cpu time    0.0533: real time    0.0534
    TRIAL :  cpu time    1.1548: real time    1.1671
    CORREC:  cpu time    5.0669: real time    5.1259
    CHARGE:  cpu time    0.1776: real time    0.1794
    --------------------------------------------
      LOOP:  cpu time   11.0835: real time   11.1998

 eigenvalue-minimisations  :     0
 total energy-change (2. order) :-0.1463108E-05  (-0.6778760E-06)
 number of electron     216.0000000 magnetization 
 augmentation part       -0.3996249 magnetization 

 Free energy of the ion-electron system (eV)
  ---------------------------------------------------
  alpha Z        PSCENC =        47.94900195
  Ewald energy   TEWEN  =     47374.49367880
  -Hartree energ DENC   =    -54336.81334396
  -exchange      EXHF   =         0.00000000
  -V(xc)+E(xc)   XCENC  =       442.07411353
  PAW double counting   =    101864.81174123  -101581.19309688
  entropy T*S    EENTRO =        -0.00000000
  eigenvalues    EBANDS =     -2659.47689217
  atomic energy  EATOM  =      8420.94593319
  ---------------------------------------------------
  free energy    TOTEN  =      -427.20886428 eV

  energy without entropy =     -427.20886428  energy(sigma->0) =     -427.20886428


--------------------------------------------------------------------------------------------------------




--------------------------------------- Iteration      1(  25)  ---------------------------------------


    POTLOK:  cpu time    4.6186: real time    4.6521
    SETDIJ:  cpu time    0.0532: real time    0.0534
    TRIAL :  cpu time    1.1577: real time    1.1690
    CORREC:  cpu time    5.0729: real time    5.1128
    CHARGE:  cpu time    0.1756: real time    0.1772
    --------------------------------------------
      LOOP:  cpu time   11.1126: real time   11.2025

 eigenvalue-minimisations  :     0
 total energy-change (2. order) :-0.6961345E-06  (-0.3395374E-06)
 number of electron     216.0000000 magnetization 
 augmentation part       -0.3996202 magnetization 

 Free energy of the ion-electron system (eV)
  ---------------------------------------------------
  alpha Z        PSCENC =        47.94900195
  Ewald energy   TEWEN  =     47374.49367880
  -Hartree energ DENC   =    -54336.81019798
  -exchange      EXHF   =         0.00000000
  -V(xc)+E(xc)   XCENC  =       442.07399214
  PAW double counting   =    101864.18867952  -101580.56998324
  entropy T*S    EENTRO =        -0.00000000
  eigenvalues    EBANDS =     -2659.47996937
  atomic energy  EATOM  =      8420.94593319
  ---------------------------------------------------
  free energy    TOTEN  =      -427.20886498 eV

  energy without entropy =     -427.20886498  energy(sigma->0) =     -427.20886498


--------------------------------------------------------------------------------------------------------




--------------------------------------- Iteration      1(  26)  ---------------------------------------


    POTLOK:  cpu time    4.6286: real time    4.6600
    SETDIJ:  cpu time    0.0531: real time    0.0533
    TRIAL :  cpu time    1.1568: real time    1.1683
    CORREC:  cpu time    5.0711: real time    5.1199
    CHARGE:  cpu time    0.1781: real time    0.1798
    --------------------------------------------
      LOOP:  cpu time   11.1171: real time   11.2150

 eigenvalue-minimisations  :     0
 total energy-change (2. order) :-0.3496389E-06  (-0.1636028E-06)
 number of electron     216.0000000 magnetization 
 augmentation part       -0.3996173 magnetization 

 Free energy of the ion-electron system (eV)
  ---------------------------------------------------
  alpha Z        PSCENC =        47.94900195
  Ewald energy   TEWEN  =     47374.49367880
  -Hartree energ DENC   =    -54336.81602915
  -exchange      EXHF   =         0.00000000
  -V(xc)+E(xc)   XCENC  =       442.07412528
  PAW double counting   =    101863.94788247  -101580.32918580
  entropy T*S    EENTRO =        -0.00000000
  eigenvalues    EBANDS =     -2659.47427208
  atomic energy  EATOM  =      8420.94593319
  ---------------------------------------------------
  free energy    TOTEN  =      -427.20886533 eV

  energy without entropy =     -427.20886533  energy(sigma->0) =     -427.20886533


--------------------------------------------------------------------------------------------------------




--------------------------------------- Iteration      1(  27)  ---------------------------------------


    POTLOK:  cpu time    4.6236: real time    4.6555
    SETDIJ:  cpu time    0.0532: real time    0.0534
    TRIAL :  cpu time    1.1578: real time    1.1692
    CORREC:  cpu time    5.0539: real time    5.1220
    CHARGE:  cpu time    0.1754: real time    0.1793
    --------------------------------------------
      LOOP:  cpu time   11.1064: real time   11.2226

 eigenvalue-minimisations  :     0
 total energy-change (2. order) :-0.1658045E-06  (-0.7665256E-07)
 number of electron     216.0000000 magnetization 
 augmentation part       -0.3996178 magnetization 

 Free energy of the ion-electron system (eV)
  ---------------------------------------------------
  alpha Z        PSCENC =        47.94900195
  Ewald energy   TEWEN  =     47374.49367880
  -Hartree energ DENC   =    -54336.82023762
  -exchange      EXHF   =         0.00000000
  -V(xc)+E(xc)   XCENC  =       442.07423402
  PAW double counting   =    101864.04024114  -101580.42155871
  entropy T*S    EENTRO =        -0.00000000
  eigenvalues    EBANDS =     -2659.47015827
  atomic energy  EATOM  =      8420.94593319
  ---------------------------------------------------
  free energy    TOTEN  =      -427.20886549 eV

  energy without entropy =     -427.20886549  energy(sigma->0) =     -427.20886549


--------------------------------------------------------------------------------------------------------




--------------------------------------- Iteration      1(  28)  ---------------------------------------


    POTLOK:  cpu time    4.6248: real time    4.6555
    SETDIJ:  cpu time    0.0533: real time    0.0534
    TRIAL :  cpu time    1.1562: real time    1.1674
    CORREC:  cpu time    5.0559: real time    5.1035
    EDDIAG:  cpu time    0.4368: real time    0.4421
    CHARGE:  cpu time    0.1773: real time    0.1791
[...]
      21 -86.0108      22 -86.0130      23 -86.0371      24 -86.0361      25 -86.0167
      26 -86.0188      27 -86.0180      28 -86.0287      29 -86.0146      30 -86.0166
      31 -86.0362      32 -86.0284      33 -86.0224      34 -86.0183      35 -86.0168
      36 -86.0194      37 -86.0216      38 -86.0243      39 -86.0244      40 -86.0226
      41 -86.0232      42 -86.0262      43 -86.0202      44 -86.0259      45 -86.0161
      46 -86.0151      47 -86.0206      48 -86.0180      49 -86.0232      50 -86.0214
      51 -89.9362      52-120.4545      53-120.4572
 
 
 
 E-fermi :  -4.4071     XC(G=0):  -2.1296     alpha+bet : -1.6890

 Fermi energy:        -4.4071446860

 k-point     1 :       0.0000    0.0000    0.0000
  band No.  band energies     occupation 
      1     -27.6653      2.00000
      2     -26.6803      2.00000
      3     -22.4531      2.00000
      4     -21.5254      2.00000
      5     -21.5204      2.00000
      6     -21.5146      2.00000
      7     -21.5145      2.00000
      8     -21.5118      2.00000
      9     -21.5102      2.00000
     10     -19.6844      2.00000
     11     -19.6832      2.00000
     12     -19.6790      2.00000
     13     -19.6785      2.00000
     14     -19.6771      2.00000
     15     -19.6770      2.00000
     16     -18.7885      2.00000
     17     -18.7874      2.00000
     18     -18.7861      2.00000
     19     -18.7844      2.00000
     20     -18.7838      2.00000
     21     -18.7835      2.00000
     22     -16.6290      2.00000
     23     -16.6280      2.00000
     24     -16.6259      2.00000
     25     -16.6254      2.00000
     26     -16.6221      2.00000
     27     -16.6217      2.00000
     28     -15.6574      2.00000
     29     -15.6568      2.00000
     30     -15.6539      2.00000
     31     -15.6535      2.00000
     32     -15.6527      2.00000
     33     -15.6524      2.00000
     34     -14.3079      2.00000
     35     -14.3077      2.00000
     36     -14.3071      2.00000
     37     -14.3059      2.00000
     38     -14.3057      2.00000
     39     -14.3053      2.00000
     40     -12.5273      2.00000
     41     -11.9356      2.00000
     42     -11.9353      2.00000
     43     -11.9333      2.00000
     44     -11.9331      2.00000
     45     -11.9330      2.00000
     46     -11.9327      2.00000
     47     -11.8496      2.00000
     48     -11.8490      2.00000
     49     -11.8472      2.00000
     50     -11.8469      2.00000
     51     -11.8445      2.00000
     52     -11.8442      2.00000
     53     -11.3901      2.00000
     54     -11.3784      2.00000
     55     -11.3211      2.00000
     56     -10.6119      2.00000
     57     -10.4802      2.00000
     58     -10.4801      2.00000
     59     -10.4795      2.00000
     60     -10.4791      2.00000
     61     -10.4781      2.00000
     62     -10.4780      2.00000
     63      -9.5213      2.00000
     64      -9.5148      2.00000
     65      -9.5144      2.00000
     66      -9.5104      2.00000
     67      -9.5087      2.00000
     68      -9.4955      2.00000
     69      -9.2236      2.00000
     70      -9.2205      2.00000
     71      -9.2200      2.00000
     72      -9.2190      2.00000
     73      -9.2184      2.00000
     74      -9.2170      2.00000
     75      -9.1573      2.00000
     76      -9.1569      2.00000
     77      -9.1567      2.00000
     78      -9.1545      2.00000
     79      -9.1540      2.00000
     80      -9.1530      2.00000
     81      -7.8328      2.00000
     82      -7.7902      2.00000
     83      -7.5746      2.00000
     84      -7.5745      2.00000
     85      -7.5739      2.00000
     86      -7.5723      2.00000
     87      -7.5697      2.00000
     88      -7.5696      2.00000
     89      -7.3920      2.00000
     90      -7.3895      2.00000
     91      -7.3808      2.00000
     92      -7.3804      2.00000
     93      -7.3777      2.00000
     94      -7.3345      2.00000
     95      -6.4941      2.00000
     96      -6.4913      2.00000
     97      -6.4875      2.00000
     98      -6.4832      2.00000
     99      -6.4811      2.00000
    100      -6.4681      2.00000
    101      -6.0985      2.00000
    102      -6.0962      2.00000
    103      -4.5094      2.00000
    104      -4.5061      2.00000
    105      -4.5028      2.00000
    106      -4.5011      2.00000
    107      -4.4959      2.00000
    108      -4.4954      2.00000
    109      -1.7167      0.00000
    110      -1.7151      0.00000
    111      -1.7064      0.00000
    112      -1.7048      0.00000
    113      -1.7029      0.00000
    114      -1.7015      0.00000
    115      -0.2613      0.00000
    116       0.1369      0.00000
    117       0.1417      0.00000
    118       0.1454      0.00000
    119       0.1517      0.00000
    120       0.1530      0.00000
    121       0.1547      0.00000
    122       0.4201      0.00000
    123       0.9491      0.00000
    124       1.0683      0.00000
    125       1.1267      0.00000
    126       1.1662      0.00000
    127       1.1685      0.00000
    128       1.2239      0.00000
    129       1.2745      0.00000
    130       1.5240      0.00000
    131       1.6914      0.00000
    132       1.7707      0.00000
    133       1.8689      0.00000
    134       1.9245      0.00000
    135       2.0100      0.00000
    136       2.0274      0.00000


--------------------------------------------------------------------------------------------------------


 soft charge-density along one line, spin component           1
         0         1         2         3         4         5         6         7         8         9
 total charge-density along one line
 
 pseudopotential strength for first ion, spin component:           1
 12.717  21.400  -0.000   0.000   0.000  -0.000   0.000   0.000
 21.400  36.010  -0.000   0.000   0.000  -0.000   0.000   0.000
 -0.000  -0.000  -3.220  -0.000   0.000  -5.771  -0.000   0.000
  0.000   0.000  -0.000  -3.224  -0.000  -0.000  -5.779  -0.000
  0.000   0.000   0.000  -0.000  -3.220   0.000  -0.000  -5.771
 -0.000  -0.000  -5.771  -0.000   0.000 -10.322  -0.000   0.000
  0.000   0.000  -0.000  -5.779  -0.000  -0.000 -10.335  -0.000
  0.000   0.000   0.000  -0.000  -5.771   0.000  -0.000 -10.322
 total augmentation occupancy for first ion, spin component:           1
  7.414  -2.550  -0.000  -0.002   0.000   0.000   0.001  -0.000
 -2.550   0.916   0.000   0.001  -0.000  -0.000  -0.000   0.000
 -0.000   0.000   6.889  -0.007   0.000  -2.287   0.003  -0.000
 -0.002   0.001  -0.007   2.992  -0.000   0.003  -0.762   0.000
  0.000  -0.000   0.000  -0.000   6.888  -0.000   0.000  -2.287
  0.000  -0.000  -2.287   0.003  -0.000   0.775  -0.001   0.000
  0.001  -0.000   0.003  -0.762   0.000  -0.001   0.202  -0.000
 -0.000   0.000  -0.000   0.000  -2.287   0.000  -0.000   0.775


------------------------ aborting loop because EDIFF is reached ----------------------------------------


    FORLOC:  cpu time    0.0677: real time    0.0683
    FORNL :  cpu time    0.8407: real time    0.8460
    FORCOR:  cpu time    4.3707: real time    4.4027
    OFIELD:  cpu time    0.0016: real time    0.0016

 VOLUME and BASIS-vectors are now :
 -----------------------------------------------------------------------------
  energy-cutoff  :     1000.00
  volume of cell :     3288.85
      direct lattice vectors                 reciprocal lattice vectors
    12.325000000  0.000000000  0.000000000     0.081135903  0.046843835  0.000000000
    -6.162500000 10.673763102  0.000000000     0.000000000  0.093687670  0.000000000
     0.000000000  0.000000000 25.000000000     0.000000000  0.000000000  0.040000000

  length of vectors
    12.325000000 12.325000000 25.000000000     0.093687670  0.093687670  0.040000000


 FORCES acting on ions:
    Electron-Ion                     Ewald-Force                    Non-Local-Force
 -----------------------------------------------------------------------------------------------
   0.107E+02 0.939E+01 0.256E+02   -.107E+02 -.938E+01 -.256E+02   0.142E-01 -.527E-02 0.124E-01
   0.175E+02 0.865E+01 0.331E+02   -.175E+02 -.863E+01 -.331E+02   0.194E-01 -.128E-01 -.545E-02
   0.858E+01 0.220E+02 0.407E+02   -.858E+01 -.220E+02 -.407E+02   -.203E-02 0.445E-01 0.353E-01
   0.135E+02 0.198E+02 0.639E+02   -.136E+02 -.198E+02 -.640E+02   0.514E-01 0.210E-01 0.807E-01
   0.116E+02 0.275E+01 0.257E+02   -.116E+02 -.274E+01 -.257E+02   0.394E-02 -.165E-01 -.422E-02
   0.122E+02 -.209E+01 0.262E+02   -.122E+02 0.210E+01 -.262E+02   -.191E-01 -.341E-02 -.133E-01
   0.233E+02 0.941E+01 0.552E+02   -.233E+02 -.935E+01 -.552E+02   0.521E-01 -.592E-01 -.454E-02
   0.229E+02 -.779E+01 0.585E+02   -.229E+02 0.782E+01 -.584E+02   0.802E-02 -.298E-01 -.879E-01
   -.956E+01 0.202E+02 0.417E+02   0.959E+01 -.202E+02 -.416E+02   -.207E-01 -.739E-02 -.322E-01
   -.173E+02 0.148E+02 0.620E+02   0.174E+02 -.148E+02 -.620E+02   -.714E-01 0.417E-01 -.610E-01
   0.286E+01 -.254E+01 0.209E+02   -.285E+01 0.253E+01 -.209E+02   -.473E-02 0.334E-02 -.548E-02
   0.229E+01 -.186E+01 0.195E+02   -.228E+01 0.186E+01 -.195E+02   -.152E-01 0.664E-02 0.157E-02
   0.886E+01 -.210E+02 0.665E+02   -.894E+01 0.210E+02 -.665E+02   0.866E-01 -.268E-01 -.703E-01
   0.413E+01 -.222E+02 0.415E+02   -.416E+01 0.222E+02 -.414E+02   0.260E-01 0.228E-02 -.346E-01
   -.104E+02 0.653E+01 0.251E+02   0.104E+02 -.653E+01 -.251E+02   0.146E-01 -.785E-02 -.607E-02
   -.154E+02 0.435E+01 0.292E+02   0.154E+02 -.435E+01 -.292E+02   -.142E-02 0.106E-01 -.227E-01
   -.156E+01 -.640E+00 0.188E+02   0.157E+01 0.637E+00 -.188E+02   -.583E-02 0.823E-03 0.117E-02
   0.859E+00 0.575E+01 0.200E+02   -.853E+00 -.575E+01 -.200E+02   -.867E-02 0.401E-02 0.870E-02
   -.316E+01 -.184E+02 0.317E+02   0.314E+01 0.184E+02 -.317E+02   0.267E-01 -.715E-02 0.956E-02
   -.136E+01 -.891E+01 0.220E+02   0.135E+01 0.892E+01 -.220E+02   0.594E-02 -.583E-02 -.157E-02
   0.181E+02 -.789E+01 0.357E+02   -.181E+02 0.789E+01 -.357E+02   -.653E-02 -.490E-02 -.458E-01
   0.108E+02 -.930E+01 0.281E+02   -.108E+02 0.929E+01 -.281E+02   -.130E-01 0.160E-01 -.162E-01
   -.438E+01 0.972E+01 0.810E+02   0.445E+01 -.977E+01 -.811E+02   -.618E-01 0.504E-01 0.746E-01
   -.755E+01 -.154E+02 0.767E+02   0.751E+01 0.155E+02 -.768E+02   0.425E-01 -.632E-01 0.710E-01
   0.501E+01 -.220E+01 0.210E+02   -.499E+01 0.220E+01 -.210E+02   -.930E-02 0.179E-02 -.964E-02
   0.933E+00 0.449E+01 0.212E+02   -.926E+00 -.449E+01 -.212E+02   -.130E-01 0.636E-02 -.947E-03
   -.233E+02 0.273E+01 0.460E+02   0.233E+02 -.277E+01 -.460E+02   -.321E-02 0.288E-01 -.348E-01
   -.213E+02 -.909E+01 0.415E+02   0.214E+02 0.906E+01 -.415E+02   -.379E-01 0.310E-01 0.157E-01
   0.656E+01 -.134E+02 0.294E+02   -.657E+01 0.134E+02 -.294E+02   0.112E-01 0.831E-02 -.202E-01
   0.611E+00 -.498E+01 0.224E+02   -.621E+00 0.497E+01 -.224E+02   0.154E-02 0.884E-02 -.921E-02
   -.173E+02 -.186E+02 0.512E+02   0.173E+02 0.187E+02 -.513E+02   -.438E-01 -.278E-01 0.559E-01
   -.987E+01 -.180E+02 0.339E+02   0.988E+01 0.180E+02 -.339E+02   -.455E-03 -.261E-01 0.229E-01
   0.588E+00 0.241E+01 0.194E+02   -.594E+00 -.241E+01 -.194E+02   0.119E-01 -.846E-02 0.370E-02
   0.167E+01 0.244E+01 0.208E+02   -.168E+01 -.243E+01 -.208E+02   0.556E-03 -.286E-02 -.594E-02
   -.725E+01 0.909E+00 0.228E+02   0.725E+01 -.916E+00 -.228E+02   0.996E-02 0.195E-02 -.206E-02
   -.623E+01 -.250E+01 0.222E+02   0.624E+01 0.249E+01 -.222E+02   -.112E-01 0.845E-02 -.252E-02
   -.127E+02 -.662E+01 0.262E+02   0.127E+02 0.661E+01 -.262E+02   -.153E-01 0.427E-02 0.199E-02
   -.734E+01 -.595E+01 0.218E+02   0.734E+01 0.595E+01 -.218E+02   -.111E-01 0.314E-02 0.103E-01
   -.689E+01 -.900E+01 0.234E+02   0.690E+01 0.901E+01 -.234E+02   -.112E-01 -.729E-02 0.807E-02
   -.101E+01 -.214E+01 0.199E+02   0.101E+01 0.215E+01 -.199E+02   0.245E-02 -.221E-02 0.828E-02
   0.258E+01 0.620E+01 0.208E+02   -.258E+01 -.621E+01 -.208E+02   -.442E-02 0.933E-02 0.810E-02
   0.859E+01 0.135E+02 0.272E+02   -.861E+01 -.135E+02 -.272E+02   0.109E-01 0.114E-01 0.162E-01
   0.688E+00 0.110E+02 0.231E+02   -.677E+00 -.110E+02 -.231E+02   -.837E-02 0.837E-02 -.740E-03
   0.986E-01 0.206E+02 0.349E+02   -.681E-01 -.206E+02 -.349E+02   -.339E-01 0.121E-01 0.119E-01
   -.209E+01 0.416E+01 0.224E+02   0.210E+01 -.416E+01 -.223E+02   0.123E-02 -.762E-02 -.659E-02
   -.883E+01 0.112E+02 0.280E+02   0.884E+01 -.112E+02 -.280E+02   -.969E-02 -.184E-02 -.174E-01
   -.151E+01 -.424E+01 0.207E+02   0.150E+01 0.424E+01 -.207E+02   0.145E-01 -.235E-02 0.103E-02
   -.394E+01 0.160E+01 0.198E+02   0.392E+01 -.159E+01 -.198E+02   0.756E-02 -.561E-03 -.820E-02
   0.311E+00 -.263E+01 0.196E+02   -.314E+00 0.263E+01 -.196E+02   0.818E-02 -.388E-02 0.580E-02
   0.416E+01 0.305E+01 0.198E+02   -.417E+01 -.305E+01 -.198E+02   0.601E-02 0.226E-02 0.339E-02
   0.144E+00 -.999E-01 -.406E+03   -.132E+00 0.923E-01 0.406E+03   -.111E-01 0.623E-02 -.371E-01
   -.229E+03 0.156E+03 -.622E+03   0.279E+03 -.190E+03 0.626E+03   -.510E+02 0.347E+02 -.330E+01
   0.229E+03 -.156E+03 -.600E+03   -.279E+03 0.190E+03 0.597E+03   0.510E+02 -.347E+02 0.320E+01
 -----------------------------------------------------------------------------------------------
   0.315E-01 -.344E-02 0.197E+00   0.114E-12 -.114E-12 0.227E-12   -.316E-01 0.339E-02 -.199E+00
 
 
 POSITION                                       TOTAL-FORCE (eV/Angst)
 -----------------------------------------------------------------------------------
     11.98348      0.00342      0.01417         0.001964     -0.000033     -0.000308
     -0.34154      1.42665      0.01100         0.000411      0.001648      0.000750
      2.12355      0.00315      0.01249         0.001653     -0.003776      0.003612
      2.12326      1.42653      0.00641        -0.000730      0.003481      0.003995
     10.75099      2.13819      0.01213         0.000610     -0.004111      0.002087
     -1.57382      3.56123      0.01110        -0.004878      0.006728      0.000753
      0.89078      2.13854      0.00548        -0.001628      0.001457      0.001499
      0.89099      3.56147      0.00181        -0.006398      0.006054     -0.005365
      4.58864      0.00346      0.01135         0.006405      0.000827     -0.000698
      4.58894      1.42623      0.00646        -0.002971      0.001673     -0.006680
      9.51854      4.27281      0.01369         0.007457     -0.006908      0.000397
     -2.80632      5.69591      0.01434        -0.008215      0.004575      0.001025
      2.12300      4.27302      0.00000        -0.000923      0.004470     -0.009056
      2.12335      5.69594      0.00581        -0.003445     -0.006578      0.000571
      7.05344      0.00333      0.01399         0.005926     -0.002691      0.001837
      7.05353      1.42635      0.01368        -0.004797      0.004931     -0.000176
      8.28610      6.40752      0.01601         0.003670     -0.002155     -0.000456
     -4.03885      7.83070      0.01636        -0.002616      0.002743      0.000000
      3.35586      6.40753      0.01007         0.002136      0.000301      0.002058
      3.35599      7.83072      0.01320        -0.002903      0.000057      0.000246
     -0.34146      4.27290      0.00723         0.009316     -0.006821     -0.000166
     -0.34138      5.69591      0.00946        -0.006875      0.003107      0.002725
      3.35624      2.13791      0.00222         0.004912     -0.001035     -0.006693
      3.35573      3.56155      0.00139        -0.002453      0.000675     -0.002745
     -1.57395      6.40758      0.01311         0.009680     -0.003824     -0.000555
     -1.57385      7.83068      0.01438        -0.004833      0.004208      0.000396
      5.82093      2.13784      0.01033         0.002965     -0.005546     -0.002212
      5.82114      3.56097      0.01156        -0.001652      0.000240      0.003129
      0.89092      6.40755      0.00907         0.003989     -0.000289      0.002060
      0.89106      7.83068      0.01235        -0.008589      0.000217      0.000551
      4.58871      4.27293      0.00850         0.000206     -0.004738      0.003846
      4.58852      5.69606      0.01149         0.000977      0.007137      0.001281
      9.51845      0.00337      0.01490         0.005631     -0.005639      0.000367
      9.51855      1.42644      0.01438        -0.004447      0.008816     -0.000249
      8.28593      2.13803      0.01453         0.003503     -0.005387      0.001252
      8.28613      3.56115      0.01464        -0.004603      0.001668      0.000535
      7.05356      4.27269      0.01457         0.003337     -0.000501      0.001221
      7.05362      5.69588      0.01553        -0.002649      0.000544     -0.000044
      5.82112      6.40755      0.01489        -0.000879      0.001394      0.000157
      5.82102      7.83073      0.01579         0.000838      0.001793     -0.000293
      7.05363      8.54227      0.01631        -0.002659     -0.000884      0.001176
     -5.27149      9.96549      0.01495        -0.001878     -0.002700     -0.001037
     -2.80638      8.54234      0.01558         0.002647     -0.001347     -0.000118
     -2.80627      9.96553      0.01362        -0.002704      0.000595      0.001340
     -0.34149      8.54239      0.01378         0.006190     -0.001681      0.000709
     -0.34138      9.96550      0.01354        -0.006848      0.002805      0.001909
      2.12343      8.54232      0.01336         0.006400     -0.001400      0.000963
      2.12354      9.96544      0.01469        -0.007860      0.004228     -0.001880
      4.58846      8.54235      0.01505         0.005070     -0.004164      0.001094
      4.58853      9.96550      0.01517        -0.003214      0.003560      0.000679
      3.04930      2.68154      3.24980         0.000849     -0.001485     -0.021007
      4.02070      2.02068      3.31422        -0.548972      0.379165     -0.032001
      2.07767      3.34267      3.19035         0.553879     -0.385402      0.047520
 -----------------------------------------------------------------------------------
    total drift:                               -0.000145     -0.000042     -0.001753


--------------------------------------------------------------------------------------------------------



  FREE ENERGIE OF THE ION-ELECTRON SYSTEM (eV)
  ---------------------------------------------------
  free  energy   TOTEN  =      -427.20886557 eV

  energy  without entropy=     -427.20886557  energy(sigma->0) =     -427.20886557
 


--------------------------------------------------------------------------------------------------------


    POTLOK:  cpu time    4.2932: real time    4.3271


--------------------------------------------------------------------------------------------------------


 writing wavefunctions
     LOOP+:  cpu time  313.2685: real time  316.4120
    4ORBIT:  cpu time    0.0000: real time    0.0000

 total amount of memory used by VASP MPI-rank0   100580. kBytes
=======================================================================

   base      :      30000. kBytes
   nonl-proj :       8229. kBytes
   fftplans  :      18352. kBytes
   grid      :      30208. kBytes
   one-center:          6. kBytes
   wavefun   :      13785. kBytes
 
  
  
 General timing and accounting informations for this job:
 ========================================================
  
                  Total CPU time used (sec):      354.522
                            User time (sec):      331.058
                          System time (sec):       23.464
                         Elapsed time (sec):      359.408
  
                   Maximum memory used (kb):      768556.
                   Average memory used (kb):          N/A
  
                          Minor page faults:       438535
                          Major page faults:          464
                 Voluntary context switches:         4513
