 vasp.6.2.1 16May21 (build Nov 06 2021 14:46:37) complex                        
  
 executed on             LinuxIFC date 2025.03.03  17:59:14
 running on  112 total cores
 distrk:  each k-point on  112 cores,    1 groups
 distr:  one band on NCORE=  28 cores,    4 groups


--------------------------------------------------------------------------------------------------------


 INCAR:
   ALGO = Conjugate
   NPAR = 4
   ISMEAR = 0
   SIGMA = 0.01
   PREC = Accurate
   EDIFF = 1E-7
   ENCUT = 1000
   ISIF = 0
   GGA = MK
   LUSE_VDW = .TRUE.
   PARAM1 = 0.1234
   PARAM2 = 0.711357
   ZAB_VDW = -1.8867
   AGGAC = 0.0000
   LASPH = .TRUE.

 POTCAR:    PAW_PBE C_h 06Feb2004                 
 POTCAR:    PAW_PBE O_h 06Feb2004                 
 -----------------------------------------------------------------------------
|                                                                             |
|           W    W    AA    RRRRR   N    N  II  N    N   GGGG   !!!           |
|           W    W   A  A   R    R  NN   N  II  NN   N  G    G  !!!           |
|           W    W  A    A  R    R  N N  N  II  N N  N  G       !!!           |
|           W WW W  AAAAAA  RRRRR   N  N N  II  N  N N  G  GGG   !            |
|           WW  WW  A    A  R   R   N   NN  II  N   NN  G    G                |
|           W    W  A    A  R    R  N    N  II  N    N   GGGG   !!!           |
|                                                                             |
|     For optimal performance we recommend to set                             |
|       NCORE = 2 up to number-of-cores-per-socket                            |
|     NCORE specifies how many cores store one orbital (NPAR=cpu/NCORE).      |
|     This setting can greatly improve the performance of VASP for DFT.       |
|     The default, NCORE=1 might be grossly inefficient on modern             |
|     multi-core architectures or massively parallel machines. Do your        |
|     own testing! More info at https://www.vasp.at/wiki/index.php/NCORE      |
|     Unfortunately you need to use the default for GW and RPA                |
|     calculations (for HF NCORE is supported but not extensively tested      |
|     yet).                                                                   |
|                                                                             |
 -----------------------------------------------------------------------------

 -----------------------------------------------------------------------------
|                                                                             |
|               ----> ADVICE to this user running VASP <----                  |
|                                                                             |
|     You have switched on vdW-DFT.                                           |
|     This routine was written and supplied by Jiri Klimes. We recommend      |
|     that you carefully read and cite the following publications:            |
|       J. Klimes, D.R. Bowler, A. Michelides                                 |
|          J. Phys.: Cond Matt. 22 022201 (2010)                              |
|       J. Klimes, D.R. Bowler, A. Michelides                                 |
|          Phys. Rev. B. 83, 195131 (2011)                                    |
|     and references therein.                                                 |
|                                                                             |
 -----------------------------------------------------------------------------

 POTCAR:    PAW_PBE C_h 06Feb2004                 
   VRHFIN =C: s2p2                                                                                  
   LEXCH  = PE                                                                                      
   EATOM  =   147.1560 eV,   10.8157 Ry                                                             
                                                                                                    
   TITEL  = PAW_PBE C_h 06Feb2004                                                                   
   LULTRA =        F    use ultrasoft PP ?                                                          
   IUNSCR =        1    unscreen: 0-lin 1-nonlin 2-no                                               
   RPACOR =    0.800    partial core radius                                                         
   POMASS =   12.011; ZVAL   =    4.000    mass and valenz                                          
   RCORE  =    1.100    outmost cutoff radius                                                       
   RWIGS  =    1.630; RWIGS  =    0.863    wigner-seitz radius (au A)                               
   ENMAX  =  700.000; ENMIN  =  500.000 eV                                                          
   ICORE  =        2    local potential                                                             
   LCOR   =        T    correct aug charges                                                         
   LPAW   =        T    paw PP                                                                      
   EAUG   =  946.768                                                                                
   DEXC   =    0.000                                                                                
   RMAX   =    1.128    core radius for proj-oper                                                   
   RAUG   =    1.300    factor for augmentation sphere                                              
   RDEP   =    1.162    radius for radial grids                                                     
   RDEPT  =    1.088    core radius for aug-charge                                                  
                                                                                                    
   Atomic configuration                                                                             
    4 entries                                                                                       
     n  l   j            E        occ.                                                              
     1  0  0.50      -273.3789   2.0000                                                             
     2  0  0.50       -13.7508   2.0000                                                             
     2  1  0.50        -5.2854   2.0000                                                             
     3  2  1.50        -5.4423   0.0000                                                             
   Description                                                                                      
     l       E           TYP  RCUT    TYP  RCUT                                                     
     0    -13.7508458     23  1.100                                                                 
     0     -8.2022199     23  1.100                                                                 
     1     -5.2854383     23  1.100                                                                 
     1      1.1560700     23  1.100                                                                 
     2     -5.4423304      7  1.100                                                                 
  local pseudopotential read in
  partial core-charges read in
  partial kinetic energy density read in
  atomic valenz-charges read in
  non local Contribution for L=           0  read in
    real space projection operators read in
  non local Contribution for L=           0  read in
    real space projection operators read in
  non local Contribution for L=           1  read in
    real space projection operators read in
  non local Contribution for L=           1  read in
    real space projection operators read in
    PAW grid and wavefunctions read in
 
   number of l-projection  operators is LMAX  =           4
   number of lm-projection operators is LMMAX =           8
 
 POTCAR:    PAW_PBE O_h 06Feb2004                 
   VRHFIN =O: s2p4                                                                                  
   LEXCH  = PE                                                                                      
   EATOM  =   432.3788 eV,   31.7789 Ry                                                             
                                                                                                    
   TITEL  = PAW_PBE O_h 06Feb2004                                                                   
   LULTRA =        F    use ultrasoft PP ?                                                          
   IUNSCR =        1    unscreen: 0-lin 1-nonlin 2-no                                               
   RPACOR =    0.800    partial core radius                                                         
   POMASS =   16.000; ZVAL   =    6.000    mass and valenz                                          
   RCORE  =    1.100    outmost cutoff radius                                                       
   RWIGS  =    1.400; RWIGS  =    0.741    wigner-seitz radius (au A)                               
   ENMAX  =  700.000; ENMIN  =  500.000 eV                                                          
   ICORE  =        2    local potential                                                             
   LCOR   =        T    correct aug charges                                                         
   LPAW   =        T    paw PP                                                                      
   EAUG   =  888.804                                                                                
   DEXC   =    0.000                                                                                
   RMAX   =    1.128    core radius for proj-oper                                                   
   RAUG   =    1.300    factor for augmentation sphere                                              
   RDEP   =    1.125    radius for radial grids                                                     
   RDEPT  =    1.088    core radius for aug-charge                                                  
                                                                                                    
   Atomic configuration                                                                             
    4 entries                                                                                       
     n  l   j            E        occ.                                                              
     1  0  0.50      -514.6923   2.0000                                                             
     2  0  0.50       -23.9615   2.0000                                                             
     2  1  0.50        -9.0305   4.0000                                                             
     3  2  1.50        -9.5241   0.0000                                                             
   Description                                                                                      
     l       E           TYP  RCUT    TYP  RCUT                                                     
     0    -23.9615319     23  1.100                                                                 
     0    -25.3221145     23  1.100                                                                 
     1     -9.0304911     23  1.100                                                                 
     1     -5.4802209     23  1.100                                                                 
     2     -9.5240782      7  1.100                                                                 
  local pseudopotential read in
  partial core-charges read in
  partial kinetic energy density read in
  atomic valenz-charges read in
  non local Contribution for L=           0  read in
    real space projection operators read in
  non local Contribution for L=           0  read in
    real space projection operators read in
  non local Contribution for L=           1  read in
    real space projection operators read in
  non local Contribution for L=           1  read in
    real space projection operators read in
    PAW grid and wavefunctions read in
 
   number of l-projection  operators is LMAX  =           4
   number of lm-projection operators is LMMAX =           8
 
 -----------------------------------------------------------------------------
|                                                                             |
|               ----> ADVICE to this user running VASP <----                  |
|                                                                             |
|     You have a (more or less) 'large supercell' and for larger cells it     |
|     might be more efficient to use real-space projection operators.         |
|     Therefore, try LREAL= Auto in the INCAR file.                           |
|     Mind: For very accurate calculation, you might also keep the            |
|     reciprocal projection scheme (i.e. LREAL=.FALSE.).                      |
|                                                                             |
 -----------------------------------------------------------------------------

 -----------------------------------------------------------------------------
|                                                                             |
|               ----> ADVICE to this user running VASP <----                  |
|                                                                             |
|     You enforced a specific xc type in the INCAR file but a different       |
|     type was found in the POTCAR file.                                      |
|     I HOPE YOU KNOW WHAT YOU ARE DOING!                                     |
|                                                                             |
 -----------------------------------------------------------------------------

  PAW_PBE C_h 06Feb2004                 :
 energy of atom  1       EATOM= -147.1560
 kinetic energy error for atom=    0.0031 (will be added to EATOM!!)
  PAW_PBE O_h 06Feb2004                 :
 energy of atom  2       EATOM= -432.3788
 kinetic energy error for atom=    0.0171 (will be added to EATOM!!)
 
 
 POSCAR:  C  O
  positions in cartesian coordinates
  No initial velocities read in
 exchange correlation table for  LEXCH =       43
   RHO(1)=    0.500       N(1)  =     2000
   RHO(2)=  100.500       N(2)  =     4000
 


--------------------------------------------------------------------------------------------------------


 ion  position               nearest neighbor table
   1  0.972  0.000  0.001-  50 1.42   2 1.42  42 1.42
   2  0.039  0.134  0.001-   5 1.42   7 1.42   1 1.42
   3  0.172  0.000  0.001-  42 1.42  44 1.42   4 1.42
   4  0.239  0.134  0.000-   7 1.42   3 1.42  23 1.42
   5  0.972  0.200  0.001-   6 1.42   2 1.42  34 1.42
   6  0.039  0.334  0.001-   5 1.42  21 1.42  11 1.42
   7  0.172  0.200  0.000-   8 1.42   2 1.42   4 1.42
   8  0.239  0.334  0.000-  13 1.42   7 1.42  21 1.42
   9  0.372  0.000  0.001-  10 1.42  44 1.42  46 1.42
  10  0.439  0.134  0.000-  27 1.42   9 1.42  23 1.42
  11  0.972  0.400  0.001-  12 1.42  36 1.42   6 1.42
  12  0.039  0.534  0.001-  25 1.42  11 1.42  17 1.42
  13  0.372  0.400  0.000-   8 1.42  14 1.42  24 1.42
  14  0.439  0.534  0.000-  13 1.42  29 1.42  19 1.42
  15  0.572  0.000  0.001-  46 1.42  16 1.42  48 1.42
  16  0.639  0.134  0.001-  15 1.42  35 1.42  27 1.42
  17  0.972  0.600  0.001-  38 1.42  18 1.42  12 1.42
  18  0.039  0.734  0.001-  43 1.42  41 1.42  17 1.42
  19  0.572  0.600  0.001-  14 1.42  20 1.42  32 1.42
  20  0.639  0.734  0.001-  49 1.42  19 1.42  47 1.42
  21  0.172  0.400  0.000-  22 1.42   8 1.42   6 1.42
  22  0.239  0.534  0.000-  21 1.42  29 1.42  25 1.42
  23  0.372  0.200  0.000-  10 1.42   4 1.42  24 1.42
  24  0.439  0.334  0.000-  13 1.42  31 1.42  23 1.42
  25  0.172  0.600  0.001-  26 1.42  12 1.42  22 1.42
  26  0.239  0.734  0.001-  25 1.42  45 1.42  43 1.42
  27  0.572  0.200  0.001-  10 1.42  28 1.42  16 1.42
  28  0.639  0.334  0.001-  27 1.42  37 1.42  31 1.42
  29  0.372  0.600  0.000-  22 1.42  14 1.42  30 1.42
  30  0.439  0.734  0.001-  47 1.42  29 1.42  45 1.42
  31  0.572  0.400  0.000-  32 1.42  28 1.42  24 1.42
  32  0.639  0.534  0.001-  31 1.42  39 1.42  19 1.42
  33  0.772  0.000  0.001-  34 1.42  48 1.42  50 1.42
  34  0.839  0.134  0.001-  33 1.42   5 1.42  35 1.42
  35  0.772  0.200  0.001-  36 1.42  16 1.42  34 1.42
  36  0.839  0.334  0.001-  35 1.42  11 1.42  37 1.42
  37  0.772  0.400  0.001-  28 1.42  38 1.42  36 1.42
  38  0.839  0.534  0.001-  17 1.42  37 1.42  39 1.42
  39  0.772  0.600  0.001-  40 1.42  38 1.42  32 1.42
  40  0.839  0.734  0.001-  39 1.42  49 1.42  41 1.42
  41  0.972  0.800  0.001-  18 1.42  42 1.42  40 1.42
  42  0.039  0.934  0.001-   3 1.42  41 1.42   1 1.42
  43  0.172  0.800  0.001-  18 1.42  44 1.42  26 1.42
  44  0.239  0.934  0.001-   9 1.42  43 1.42   3 1.42
  45  0.372  0.800  0.001-  26 1.42  46 1.42  30 1.42
  46  0.439  0.934  0.001-  15 1.42  45 1.42   9 1.42
  47  0.572  0.800  0.001-  30 1.42  48 1.42  20 1.42
  48  0.639  0.934  0.001-  47 1.42  33 1.42  15 1.42
  49  0.772  0.800  0.001-  50 1.42  20 1.42  40 1.42
  50  0.839  0.934  0.001-  49 1.42   1 1.42  33 1.42
  51  0.373  0.251  0.236-  52 1.18  53 1.18
  52  0.421  0.189  0.239-  51 1.18
  53  0.325  0.313  0.233-  51 1.18
 
  LATTYP: Found a hexagonal cell.
 ALAT       =    12.3250000000
 C/A-ratio  =     1.6227180527
  
  Lattice vectors:
  
 A1 = (  12.3250000000,   0.0000000000,   0.0000000000)
 A2 = (  -6.1625000000,  10.6737631016,   0.0000000000)
 A3 = (   0.0000000000,   0.0000000000,  20.0000000000)


Analysis of symmetry for initial positions (statically):
=====================================================================
 Subroutine PRICEL returns:
 Original cell was already a primitive cell.
 

 Routine SETGRP: Setting up the symmetry group for a 
 hexagonal supercell.


 Subroutine GETGRP returns: Found  1 space group operations
 (whereof  1 operations were pure point group operations)
 out of a pool of 24 trial point group operations.


The static configuration has the point symmetry C_1 .


Analysis of symmetry for dynamics (positions and initial velocities):
=====================================================================
 Subroutine PRICEL returns:
 Original cell was already a primitive cell.
 

 Routine SETGRP: Setting up the symmetry group for a 
 hexagonal supercell.


 Subroutine GETGRP returns: Found  1 space group operations
 (whereof  1 operations were pure point group operations)
 out of a pool of 24 trial point group operations.


The dynamic configuration has the point symmetry C_1 .


 Subroutine INISYM returns: Found  1 space group operations
 (whereof  1 operations are pure point group operations),
 and found     1 'primitive' translations


----------------------------------------------------------------------------------------

                                     Primitive cell                                     

  volume of cell :    2631.0826

  direct lattice vectors                    reciprocal lattice vectors
    12.325000000  0.000000000  0.000000000     0.081135903  0.046843835  0.000000000
    -6.162500000 10.673763102  0.000000000     0.000000000  0.093687670  0.000000000
     0.000000000  0.000000000 20.000000000     0.000000000  0.000000000  0.050000000

  length of vectors
    12.325000000 12.325000000 20.000000000     0.093687670  0.093687670  0.050000000

  position of ions in fractional coordinates (direct lattice)
     0.972450841  0.000320818  0.000708389
     0.039118382  0.133659505  0.000550216
     0.172443627  0.000295449  0.000624535
     0.239096278  0.133647917  0.000320585
     0.972452058  0.200322012  0.000606523
     0.039128360  0.333643771  0.000555187
     0.172451764  0.200354552  0.000273959
     0.239124359  0.333665720  0.000090325
     0.372465565  0.000324403  0.000567391
     0.439137473  0.133619939  0.000322923
     0.972449824  0.400309362  0.000684513
     0.039124981  0.533636789  0.000716763
     0.372416176  0.400329481  0.000000000
     0.439099602  0.533638981  0.000290518
     0.572443676  0.000312125  0.000699475
     0.639110207  0.133631751  0.000684093
     0.972452703  0.600305653  0.000800361
     0.039124495  0.733640359  0.000818141
     0.572433471  0.600306242  0.000503618
     0.639111888  0.733641879  0.000659881
     0.172454630  0.400318228  0.000361306
     0.239120185  0.533636548  0.000473136
     0.372459750  0.200295993  0.000111246
     0.439107096  0.333673419  0.000069702
     0.172452155  0.600311506  0.000655425
     0.239123371  0.733638574  0.000718912
     0.572431082  0.200289171  0.000516621
     0.639112773  0.333618630  0.000577970
     0.372439808  0.600308022  0.000453556
     0.439116090  0.733637858  0.000617737
     0.572469358  0.400320504  0.000424897
     0.639119408  0.533650873  0.000574513
     0.772445723  0.000315427  0.000745201
     0.839116277  0.133640203  0.000719132
     0.772440513  0.200307432  0.000726291
     0.839120241  0.333635728  0.000731834
     0.772446320  0.400298367  0.000728722
     0.839118980  0.533633964  0.000776376
     0.772456143  0.600308173  0.000744639
     0.839115033  0.733643180  0.000789390
     0.972455313  0.800305582  0.000815291
     0.039114714  0.933643289  0.000747563
     0.172457971  0.800312211  0.000779216
     0.239134551  0.933647193  0.000681063
     0.372451396  0.800316674  0.000689249
     0.439124489  0.933644769  0.000676788
     0.572441101  0.800310054  0.000668168
     0.639115067  0.933638985  0.000734556
     0.772445098  0.800313187  0.000752577
     0.839116614  0.933644338  0.000758538
     0.373021009  0.251226878  0.235968578
     0.420879805  0.189313152  0.239189671
     0.325156981  0.313167186  0.232995835

  ion indices of the primitive-cell ions
   primitive index   ion index
                 1           1
                 2           2
                 3           3
                 4           4
                 5           5
                 6           6
                 7           7
                 8           8
                 9           9
                10          10
                11          11
                12          12
                13          13
                14          14
                15          15
                16          16
                17          17
                18          18
                19          19
                20          20
                21          21
                22          22
                23          23
                24          24
                25          25
                26          26
                27          27
                28          28
                29          29
                30          30
                31          31
                32          32
                33          33
                34          34
                35          35
                36          36
                37          37
                38          38
                39          39
                40          40
                41          41
                42          42
                43          43
                44          44
                45          45
                46          46
                47          47
                48          48
                49          49
                50          50
                51          51
                52          52
                53          53

----------------------------------------------------------------------------------------

 
 
 KPOINTS: auto                                    

Automatic generation of k-mesh.
 Grid dimensions read from file:
 generate k-points for:    1    1    1

 Generating k-lattice:

  Cartesian coordinates                     Fractional coordinates (reciprocal lattice)
     0.081135903  0.046843835  0.000000000     1.000000000 -0.000000000  0.000000000
     0.000000000  0.093687670  0.000000000     0.000000000  1.000000000  0.000000000
     0.000000000  0.000000000  0.050000000     0.000000000  0.000000000  1.000000000

  Length of vectors
     0.093687670  0.093687670  0.050000000

  Shift w.r.t. Gamma in fractional coordinates (k-lattice)
     0.000000000  0.000000000  0.000000000

 
 Subroutine IBZKPT returns following result:
 ===========================================
 
 Found      1 irreducible k-points:
 
 Following reciprocal coordinates:
            Coordinates               Weight
  0.000000  0.000000  0.000000      1.000000
 
 Following cartesian coordinates:
            Coordinates               Weight
  0.000000  0.000000  0.000000      1.000000
 


--------------------------------------------------------------------------------------------------------




 Dimension of arrays:
   k-points           NKPTS =      1   k-points in BZ     NKDIM =      1   number of bands    NBANDS=    136
   number of dos      NEDOS =    301   number of ions     NIONS =     53
   non local maximal  LDIM  =      4   non local SUM 2l+1 LMDIM =      8
   total plane-waves  NPLWV = ******
   max r-space proj   IRMAX =      1   max aug-charges    IRDMAX=   9736
   dimension x,y,z NGX =   128 NGY =  128 NGZ =  210
   dimension x,y,z NGXF=   256 NGYF=  256 NGZF=  420
   support grid    NGXF=   256 NGYF=  256 NGZF=  420
   ions per type =              51   2
   NGX,Y,Z   is equivalent  to a cutoff of  17.27, 17.27, 17.46 a.u.
   NGXF,Y,Z  is equivalent  to a cutoff of  34.53, 34.53, 34.91 a.u.

 SYSTEM =  unknown system                          
 POSCAR =   C  O                                   

 Startparameter for this run:
   NWRITE =      2    write-flag & timer
   PREC   = accura    normal or accurate (medium, high low for compatibility)
   ISTART =      0    job   : 0-new  1-cont  2-samecut
   ICHARG =      2    charge: 1-file 2-atom 10-const
   ISPIN  =      1    spin polarized calculation?
   LNONCOLLINEAR =      F non collinear calculations
   LSORBIT =      F    spin-orbit coupling
   INIWAV =      1    electr: 0-lowe 1-rand  2-diag
   LASPH  =      T    aspherical Exc in radial PAW
 Electronic Relaxation 1
   ENCUT  = 1000.0 eV  73.50 Ry    8.57 a.u.  31.78 31.78 51.57*2*pi/ulx,y,z
   ENINI  = 1000.0     initial cutoff
   ENAUG  =  946.8 eV  augmentation charge cutoff
   NELM   =     60;   NELMIN=  2; NELMDL= -5     # of ELM steps 
   EDIFF  = 0.1E-06   stopping-criterion for ELM
   LREAL  =      F    real-space projection
   NLSPLINE    = F    spline interpolate recip. space projectors
   LCOMPAT=      F    compatible to vasp.4.4
   GGA_COMPAT  = T    GGA compatible to vasp.4.4-vasp.4.6
   LMAXPAW     = -100 max onsite density
   LMAXMIX     =    2 max onsite mixed and CHGCAR
   VOSKOWN=      0    Vosko Wilk Nusair interpolation
   ROPT   =    0.00000   0.00000
 Ionic relaxation
   EDIFFG = 0.1E-05   stopping-criterion for IOM
   NSW    =      0    number of steps for IOM
   NBLOCK =      1;   KBLOCK =      1    inner block; outer block 
   IBRION =     -1    ionic relax: 0-MD 1-quasi-New 2-CG
   NFREE  =      0    steps in history (QN), initial steepest desc. (CG)
   ISIF   =      0    stress and relaxation
   IWAVPR =     10    prediction:  0-non 1-charg 2-wave 3-comb
   ISYM   =      2    0-nonsym 1-usesym 2-fastsym
   LCORR  =      T    Harris-Foulkes like correction to forces

   POTIM  = 0.5000    time-step for ionic-motion
   TEIN   =    0.0    initial temperature
   TEBEG  =    0.0;   TEEND  =   0.0 temperature during run
   SMASS  =  -3.00    Nose mass-parameter (am)
   estimated Nose-frequenzy (Omega)   =  0.10E-29 period in steps = 0.13E+47 mass=  -0.347E-26a.u.
   SCALEE = 1.0000    scale energy and forces
   NPACO  =    256;   APACO  = 16.0  distance and # of slots for P.C.
   PSTRESS=    0.0 pullay stress

  Mass of Ions in am
   POMASS =  12.01 16.00
  Ionic Valenz
   ZVAL   =   4.00  6.00
  Atomic Wigner-Seitz radii
   RWIGS  =  -1.00 -1.00
  virtual crystal weights 
   VCA    =   1.00  1.00
   NELECT =     216.0000    total number of electrons
   NUPDOWN=      -1.0000    fix difference up-down

 DOS related values:
   EMIN   =  10.00;   EMAX   =-10.00  energy-range for DOS
   EFERMI =   0.00
   ISMEAR =     0;   SIGMA  =   0.01  broadening in eV -4-tet -1-fermi 0-gaus

 Electronic relaxation 2 (details)
   IALGO  =     58    algorithm
   LDIAG  =      T    sub-space diagonalisation (order eigenvalues)
   LSUBROT=      F    optimize rotation matrix (better conditioning)
   TURBO    =      0    0=normal 1=particle mesh
   IRESTART =      0    0=no restart 2=restart with 2 vectors
   NREBOOT  =      0    no. of reboots
   NMIN     =      0    reboot dimension
   EREF     =   0.00    reference energy to select bands
   IMIX   =      4    mixing-type and parameters
     AMIX     =   0.40;   BMIX     =  1.00
     AMIX_MAG =   1.60;   BMIX_MAG =  1.00
     AMIN     =   0.10
     WC   =   100.;   INIMIX=   1;  MIXPRE=   1;  MAXMIX= -45

 Intra band minimization:
   WEIMIN = 0.0000     energy-eigenvalue tresh-hold
   EBREAK =  0.18E-09  absolut break condition
   DEPER  =   0.30     relativ break condition  

   TIME   =   0.40     timestep for ELM

  volume/ion in A,a.u.               =      49.64       335.01
  Fermi-wavevector in a.u.,A,eV,Ry     =   0.711510  1.344560  6.887909  0.506247
  Thomas-Fermi vector in A             =   1.798641
 
 Write flags
   LWAVE        =      T    write WAVECAR
   LDOWNSAMPLE  =      F    k-point downsampling of WAVECAR
   LCHARG       =      T    write CHGCAR
   LVTOT        =      F    write LOCPOT, total local potential
   LVHAR        =      F    write LOCPOT, Hartree potential only
   LELF         =      F    write electronic localiz. function (ELF)
   LORBIT       =      0    0 simple, 1 ext, 2 COOP (PROOUT), +10 PAW based schemes


 Dipole corrections
   LMONO  =      F    monopole corrections only (constant potential shift)
   LDIPOL =      F    correct potential (dipole corrections)
   IDIPOL =      0    1-x, 2-y, 3-z, 4-all directions 
   EPSILON=  1.0000000 bulk dielectric constant

 Exchange correlation treatment:
   GGA     =    MK    GGA type
   LEXCH   =    43    internal setting for exchange type
   VOSKOWN=      0    Vosko Wilk Nusair interpolation
   LHFCALC =     F    Hartree Fock is set to
   LHFONE  =     F    Hartree Fock one center treatment
   AEXX    =    0.0000 exact exchange contribution

 vdW DFT:
   LUSE_VDW   =     T    switch on vdW DFT
   Zab_VDW    =******    correlation parameter
   PARAM1     =0.1234
   PARAM2     =0.7114
   PARAM3     =0.0000
   -- rVV10 --
   BPARAM     = 6.3000
   CPARAM     = 0.0093

 Linear response parameters
   LEPSILON=     F    determine dielectric tensor
   LRPA    =     F    only Hartree local field effects (RPA)
   LNABLA  =     F    use nabla operator in PAW spheres
   LVEL    =     F    velocity operator in full k-point grid
   LINTERFAST=   F  fast interpolation
   KINTER  =     0    interpolate to denser k-point grid
   CSHIFT  =0.1000    complex shift for real part using Kramers Kronig
   OMEGAMAX=  -1.0    maximum frequency
   DEG_THRESHOLD= 0.2000000E-02 threshold for treating states as degnerate
   RTIME   =   -0.100 relaxation time in fs
  (WPLASMAI=    0.000 imaginary part of plasma frequency in eV, 0.658/RTIME)
   DFIELD  = 0.0000000 0.0000000 0.0000000 field for delta impulse in time
 
 Orbital magnetization related:
   ORBITALMAG=     F  switch on orbital magnetization
   LCHIMAG   =     F  perturbation theory with respect to B field
   DQ        =  0.001000  dq finite difference perturbation B field
   LLRAUG    =     F  two centre corrections for induced B field



--------------------------------------------------------------------------------------------------------


 Static calculation
 charge density and potential will be updated during run
 non-spin polarized calculation
 Conjugate gradient for all bands (Freysoldt, et al. PRB 79, 241103 (2009))
 preconditioned conjugated gradient                                        
 perform sub-space diagonalisation
    before iterative eigenvector-optimisation
 modified Broyden-mixing scheme, WC =      100.0
 initial mixing is a Kerker type mixing with AMIX =  0.4000 and BMIX =      1.0000
 Hartree-type preconditioning will be used
 using additional bands           28
 reciprocal scheme for non local part
 use partial core corrections
 no Harris-corrections to forces 
 use gradient corrections 
 use of overlap-Matrix (Vanderbilt PP)
 Gauss-broadening in eV      SIGMA  =   0.01


--------------------------------------------------------------------------------------------------------


  energy-cutoff  :     1000.00
  volume of cell :     2631.08
      direct lattice vectors                 reciprocal lattice vectors
    12.325000000  0.000000000  0.000000000     0.081135903  0.046843835  0.000000000
    -6.162500000 10.673763102  0.000000000     0.000000000  0.093687670  0.000000000
     0.000000000  0.000000000 20.000000000     0.000000000  0.000000000  0.050000000

  length of vectors
    12.325000000 12.325000000 20.000000000     0.093687670  0.093687670  0.050000000


 
 k-points in units of 2pi/SCALE and weight: auto                                    
   0.00000000  0.00000000  0.00000000       1.000
 
 k-points in reciprocal lattice and weights: auto                                    
   0.00000000  0.00000000  0.00000000       1.000
 
 position of ions in fractional coordinates (direct lattice) 
   0.97245084  0.00032082  0.00070839
   0.03911838  0.13365950  0.00055022
   0.17244363  0.00029545  0.00062454
   0.23909628  0.13364792  0.00032058
   0.97245206  0.20032201  0.00060652
   0.03912836  0.33364377  0.00055519
   0.17245176  0.20035455  0.00027396
   0.23912436  0.33366572  0.00009033
   0.37246557  0.00032440  0.00056739
   0.43913747  0.13361994  0.00032292
   0.97244982  0.40030936  0.00068451
   0.03912498  0.53363679  0.00071676
   0.37241618  0.40032948  0.00000000
   0.43909960  0.53363898  0.00029052
   0.57244368  0.00031213  0.00069947
   0.63911021  0.13363175  0.00068409
   0.97245270  0.60030565  0.00080036
   0.03912449  0.73364036  0.00081814
   0.57243347  0.60030624  0.00050362
   0.63911189  0.73364188  0.00065988
   0.17245463  0.40031823  0.00036131
   0.23912018  0.53363655  0.00047314
   0.37245975  0.20029599  0.00011125
   0.43910710  0.33367342  0.00006970
   0.17245216  0.60031151  0.00065542
   0.23912337  0.73363857  0.00071891
   0.57243108  0.20028917  0.00051662
   0.63911277  0.33361863  0.00057797
   0.37243981  0.60030802  0.00045356
   0.43911609  0.73363786  0.00061774
   0.57246936  0.40032050  0.00042490
   0.63911941  0.53365087  0.00057451
   0.77244572  0.00031543  0.00074520
   0.83911628  0.13364020  0.00071913
   0.77244051  0.20030743  0.00072629
   0.83912024  0.33363573  0.00073183
   0.77244632  0.40029837  0.00072872
   0.83911898  0.53363396  0.00077638
   0.77245614  0.60030817  0.00074464
   0.83911503  0.73364318  0.00078939
   0.97245531  0.80030558  0.00081529
   0.03911471  0.93364329  0.00074756
   0.17245797  0.80031221  0.00077922
   0.23913455  0.93364719  0.00068106
   0.37245140  0.80031667  0.00068925
   0.43912449  0.93364477  0.00067679
   0.57244110  0.80031005  0.00066817
   0.63911507  0.93363899  0.00073456
   0.77244510  0.80031319  0.00075258
   0.83911661  0.93364434  0.00075854
   0.37302101  0.25122688  0.23596858
   0.42087980  0.18931315  0.23918967
   0.32515698  0.31316719  0.23299583
 
 position of ions in cartesian coordinates  (Angst):
  11.98347958  0.00342433  0.01416777
  -0.34154264  1.42664989  0.01100432
   2.12354700  0.00315355  0.01249070
   2.12325634  1.42652621  0.00641170
  10.75098721  2.13818970  0.01213047
  -1.57382270  3.56123457  0.01110375
   0.89078307  2.13853702  0.00547917
   0.89099273  3.56146885  0.00180651
   4.58863896  0.00346260  0.01134782
   4.58893648  1.42622757  0.00645846
   9.51853763  4.27280730  0.01369027
  -2.80632132  5.69591267  0.01433526
   2.12299894  4.27302204  0.00000000
   2.12335237  5.69593607  0.00581036
   7.05344483  0.00333155  0.01398950
   7.05352764  1.42635365  0.01368187
   8.28609598  6.40752033  0.01600723
  -4.03884931  7.83070339  0.01636283
   3.35585531  6.40752662  0.01007237
   3.35598594  7.83071962  0.01319763
  -0.34145776  4.27290193  0.00722612
  -0.34137895  5.69591010  0.00946273
   3.35624236  2.13791198  0.00222492
   3.35573251  3.56155103  0.00139405
  -1.57394684  6.40758280  0.01310850
  -1.57385216  7.83068434  0.01437823
   5.82093107  2.13783916  0.01033241
   5.82114012  3.56096622  0.01155939
   0.89092245  6.40754561  0.00907111
   0.89106251  7.83067670  0.01235474
   4.58870974  4.27292622  0.00849795
   4.58852320  5.69606300  0.01149026
   9.51844972  0.00336679  0.01490402
   9.51855036  1.42644387  0.01438264
   8.28593477  2.13803408  0.01452582
   8.28612680  3.56114872  0.01463668
   7.05356221  4.27268994  0.01457444
   7.05362213  5.69588251  0.01552751
   5.82112285  6.40754723  0.01489279
   5.82101669  7.83073350  0.01578780
   7.05362858  8.54227219  0.01630582
  -5.27148792  9.96548729  0.01495127
  -2.80637951  8.54234295  0.01558431
  -2.80626749  9.96552896  0.01362126
  -0.34148805  8.54239058  0.01378498
  -0.34137657  9.96550309  0.01353576
   2.12342586  8.54231992  0.01336337
   2.12354296  9.96544135  0.01469111
   4.58845581  8.54235337  0.01505154
   4.58852904  9.96549848  0.01517076
   3.04929830  2.68153618  4.71937156
   4.02070129  2.02068374  4.78379342
   2.07766701  3.34267235  4.65991669
 


--------------------------------------------------------------------------------------------------------


 k-point   1 :   0.0000 0.0000 0.0000  plane waves:  189031

 maximum and minimum number of plane-waves per node :      6755     6748

 maximum number of plane-waves:    189031
 maximum index in each direction: 
   IXMAX=   31   IYMAX=   31   IZMAX=   51
   IXMIN=  -31   IYMIN=  -31   IZMIN=  -51


 parallel 3D FFT for wavefunctions:
    minimum data exchange during FFTs selected (reduces bandwidth)
 parallel 3D FFT for charge:
    minimum data exchange during FFTs selected (reduces bandwidth)


 total amount of memory used by VASP MPI-rank0    85439. kBytes
=======================================================================

   base      :      30000. kBytes
   nonl-proj :       6586. kBytes
   fftplans  :      14299. kBytes
   grid      :      23511. kBytes
   one-center:          6. kBytes
   wavefun   :      11037. kBytes
 
     INWAV:  cpu time    0.0000: real time    0.0000
 Broyden mixing: mesh for mixing (old mesh)
   NGX = 63   NGY = 63   NGZ =103
  (NGX  =256   NGY  =256   NGZ  =420)
  gives a total of 408807 points

 initial charge density was supplied:
 charge density of overlapping atoms calculated
 number of electron     216.0000000 magnetization 
 keeping initial charge density in first step


--------------------------------------------------------------------------------------------------------


 Maximum index for augmentation-charges          459 (set IRDMAX)


--------------------------------------------------------------------------------------------------------


 First call to EWALD:  gamma=   0.128
 Maximum number of real-space cells 3x 3x 2
 Maximum number of reciprocal cells 3x 3x 4

    FEWALD:  cpu time    0.0024: real time    0.0024


--------------------------------------- Iteration      1(   1)  ---------------------------------------


vdW kernel read from vdw_kernel.bindat
  0.0000  0.2424  0.5071  0.7962  1.1119  1.4567  1.8333  2.2446  2.6937  3.1842
  3.7199  4.3049  4.9438  5.6415  6.4036  7.2358  8.1446  9.1372 10.2212 11.4050
 12.6979 14.1099 15.6519 17.3360 19.1751 21.1837 23.3773 25.7729 28.3892 31.2465
 34.3669 37.7748 41.4965 45.5611 50.0000
 
    POTLOK:  cpu time    3.3613: real time    3.4034
    SETDIJ:  cpu time    0.0560: real time    0.0563
    TRIAL :  cpu time    1.5082: real time    1.5250
    CORREC:  cpu time    0.0005: real time    0.0007
    --------------------------------------------
      LOOP:  cpu time    4.9284: real time    5.0083

 eigenvalue-minimisations  :   272
 total energy-change (2. order) : 0.2771260E+04  (-0.1099640E+05)
 number of electron     216.0000000 magnetization 
 augmentation part      216.0000000 magnetization 

 Free energy of the ion-electron system (eV)
  ---------------------------------------------------
  alpha Z        PSCENC =        59.93625244
  Ewald energy   TEWEN  =     32288.69155692
  -Hartree energ DENC   =    -38464.12185050
  -exchange      EXHF   =         0.00000000
  -V(xc)+E(xc)   XCENC  =       412.33425228
  PAW double counting   =      6548.36373666    -6261.59511771
  entropy T*S    EENTRO =        -0.00000000
  eigenvalues    EBANDS =      -233.29498054
  atomic energy  EATOM  =      8420.94593319
  ---------------------------------------------------
  free energy    TOTEN  =      2771.25978275 eV

  energy without entropy =     2771.25978275  energy(sigma->0) =     2771.25978275


--------------------------------------------------------------------------------------------------------




--------------------------------------- Iteration      1(   2)  ---------------------------------------


    TRIAL :  cpu time    2.0518: real time    2.0735
    CORREC:  cpu time    0.0001: real time    0.0001
    --------------------------------------------
      LOOP:  cpu time    2.1102: real time    2.1353

 eigenvalue-minimisations  :   424
 total energy-change (2. order) :-0.2408758E+04  (-0.2248892E+04)
 number of electron     216.0000000 magnetization 
 augmentation part      216.0000000 magnetization 

 Free energy of the ion-electron system (eV)
  ---------------------------------------------------
  alpha Z        PSCENC =        59.93625244
  Ewald energy   TEWEN  =     32288.69155692
  -Hartree energ DENC   =    -38464.12185050
  -exchange      EXHF   =         0.00000000
  -V(xc)+E(xc)   XCENC  =       412.33425228
  PAW double counting   =      6548.36373666    -6261.59511771
  entropy T*S    EENTRO =        -0.00000000
  eigenvalues    EBANDS =     -2642.05272731
  atomic energy  EATOM  =      8420.94593319
  ---------------------------------------------------
  free energy    TOTEN  =       362.50203597 eV

  energy without entropy =      362.50203597  energy(sigma->0) =      362.50203597


--------------------------------------------------------------------------------------------------------




--------------------------------------- Iteration      1(   3)  ---------------------------------------


    TRIAL :  cpu time    1.8270: real time    1.8441
    CORREC:  cpu time    0.0001: real time    0.0001
    --------------------------------------------
      LOOP:  cpu time    1.9165: real time    1.9476

 eigenvalue-minimisations  :   360
 total energy-change (2. order) :-0.7632290E+03  (-0.7578549E+03)
 number of electron     216.0000000 magnetization 
 augmentation part      216.0000000 magnetization 

 Free energy of the ion-electron system (eV)
  ---------------------------------------------------
  alpha Z        PSCENC =        59.93625244
  Ewald energy   TEWEN  =     32288.69155692
  -Hartree energ DENC   =    -38464.12185050
  -exchange      EXHF   =         0.00000000
  -V(xc)+E(xc)   XCENC  =       412.33425228
  PAW double counting   =      6548.36373666    -6261.59511771
  entropy T*S    EENTRO =        -0.00000000
  eigenvalues    EBANDS =     -3405.28167779
  atomic energy  EATOM  =      8420.94593319
  ---------------------------------------------------
  free energy    TOTEN  =      -400.72691450 eV

  energy without entropy =     -400.72691450  energy(sigma->0) =     -400.72691450


--------------------------------------------------------------------------------------------------------




--------------------------------------- Iteration      1(   4)  ---------------------------------------


    TRIAL :  cpu time    1.7161: real time    1.7320
    CORREC:  cpu time    0.0001: real time    0.0001
    --------------------------------------------
      LOOP:  cpu time    1.8055: real time    1.8236

 eigenvalue-minimisations  :   336
 total energy-change (2. order) :-0.5789985E+02  (-0.5708088E+02)
 number of electron     216.0000000 magnetization 
 augmentation part      216.0000000 magnetization 

 Free energy of the ion-electron system (eV)
  ---------------------------------------------------
  alpha Z        PSCENC =        59.93625244
  Ewald energy   TEWEN  =     32288.69155692
  -Hartree energ DENC   =    -38464.12185050
  -exchange      EXHF   =         0.00000000
  -V(xc)+E(xc)   XCENC  =       412.33425228
  PAW double counting   =      6548.36373666    -6261.59511771
  entropy T*S    EENTRO =        -0.00000000
  eigenvalues    EBANDS =     -3463.18152775
  atomic energy  EATOM  =      8420.94593319
  ---------------------------------------------------
  free energy    TOTEN  =      -458.62676447 eV

  energy without entropy =     -458.62676447  energy(sigma->0) =     -458.62676447


--------------------------------------------------------------------------------------------------------




--------------------------------------- Iteration      1(   5)  ---------------------------------------


    TRIAL :  cpu time    1.8678: real time    1.8849
    CORREC:  cpu time    0.0001: real time    0.0001
    CHARGE:  cpu time    0.1180: real time    0.1197
    --------------------------------------------
      LOOP:  cpu time    2.0890: real time    2.1099

 eigenvalue-minimisations  :   376
 total energy-change (2. order) :-0.1733322E+01  (-0.1726248E+01)
 number of electron     216.0000000 magnetization 
 augmentation part       -0.2291919 magnetization 

 Free energy of the ion-electron system (eV)
  ---------------------------------------------------
  alpha Z        PSCENC =        59.93625244
  Ewald energy   TEWEN  =     32288.69155692
  -Hartree energ DENC   =    -38464.12185050
  -exchange      EXHF   =         0.00000000
  -V(xc)+E(xc)   XCENC  =       412.33425228
  PAW double counting   =      6548.36373666    -6261.59511771
  entropy T*S    EENTRO =        -0.00000000
  eigenvalues    EBANDS =     -3464.91484958
  atomic energy  EATOM  =      8420.94593319
  ---------------------------------------------------
  free energy    TOTEN  =      -460.36008629 eV

  energy without entropy =     -460.36008629  energy(sigma->0) =     -460.36008629


--------------------------------------------------------------------------------------------------------




--------------------------------------- Iteration      1(   6)  ---------------------------------------


    POTLOK:  cpu time    3.0372: real time    3.0647
    SETDIJ:  cpu time    0.0543: real time    0.0544
    TRIAL :  cpu time    0.8812: real time    0.8906
    CORREC:  cpu time    3.3845: real time    3.4121
    CHARGE:  cpu time    0.1158: real time    0.1171
    --------------------------------------------
      LOOP:  cpu time    7.5054: real time    7.6241

 eigenvalue-minimisations  :     0
 total energy-change (2. order) : 0.5242946E+02  (-0.1655535E+02)
 number of electron     216.0000000 magnetization 
 augmentation part       -0.3289293 magnetization 

 Free energy of the ion-electron system (eV)
  ---------------------------------------------------
  alpha Z        PSCENC =        59.93625244
  Ewald energy   TEWEN  =     32288.69155692
  -Hartree energ DENC   =    -39875.46320502
  -exchange      EXHF   =         0.00000000
  -V(xc)+E(xc)   XCENC  =       460.06994293
  PAW double counting   =     80475.47510159   -80195.12078184
  entropy T*S    EENTRO =        -0.00000000
  eigenvalues    EBANDS =     -2042.46542408
  atomic energy  EATOM  =      8420.94593319
  ---------------------------------------------------
  free energy    TOTEN  =      -407.93062386 eV

  energy without entropy =     -407.93062386  energy(sigma->0) =     -407.93062386


--------------------------------------------------------------------------------------------------------




--------------------------------------- Iteration      1(   7)  ---------------------------------------


    POTLOK:  cpu time    3.0490: real time    3.0739
    SETDIJ:  cpu time    0.0644: real time    0.0647
    TRIAL :  cpu time    0.8584: real time    0.8680
    CORREC:  cpu time    3.3962: real time    3.4274
    CHARGE:  cpu time    0.1158: real time    0.1169
    --------------------------------------------
      LOOP:  cpu time    7.4870: real time    7.6669

 eigenvalue-minimisations  :     0
 total energy-change (2. order) :-0.1660945E+02  (-0.1813509E+01)
 number of electron     216.0000000 magnetization 
 augmentation part       -0.3734857 magnetization 

 Free energy of the ion-electron system (eV)
  ---------------------------------------------------
  alpha Z        PSCENC =        59.93625244
  Ewald energy   TEWEN  =     32288.69155692
  -Hartree energ DENC   =    -39358.48564207
  -exchange      EXHF   =         0.00000000
  -V(xc)+E(xc)   XCENC  =       442.50344826
  PAW double counting   =     95409.83498220   -95126.72952196
  entropy T*S    EENTRO =        -0.00000000
  eigenvalues    EBANDS =     -2561.23708044
  atomic energy  EATOM  =      8420.94593319
  ---------------------------------------------------
  free energy    TOTEN  =      -424.54007144 eV

  energy without entropy =     -424.54007144  energy(sigma->0) =     -424.54007144


--------------------------------------------------------------------------------------------------------




--------------------------------------- Iteration      1(   8)  ---------------------------------------


    POTLOK:  cpu time    3.0487: real time    3.0805
    SETDIJ:  cpu time    0.0646: real time    0.0648
    TRIAL :  cpu time    0.8599: real time    0.8688
    CORREC:  cpu time    3.3930: real time    3.4254
    CHARGE:  cpu time    0.1164: real time    0.1177
    --------------------------------------------
      LOOP:  cpu time    7.5159: real time    7.5945

 eigenvalue-minimisations  :     0
 total energy-change (2. order) :-0.1811910E+01  (-0.4702098E+00)
 number of electron     216.0000000 magnetization 
 augmentation part       -0.3910572 magnetization 

 Free energy of the ion-electron system (eV)
  ---------------------------------------------------
  alpha Z        PSCENC =        59.93625244
  Ewald energy   TEWEN  =     32288.69155692
  -Hartree energ DENC   =    -39331.29485760
  -exchange      EXHF   =         0.00000000
  -V(xc)+E(xc)   XCENC  =       442.04241748
  PAW double counting   =     99325.19080469   -99041.76280671
  entropy T*S    EENTRO =        -0.00000000
  eigenvalues    EBANDS =     -2590.10128145
  atomic energy  EATOM  =      8420.94593319
  ---------------------------------------------------
  free energy    TOTEN  =      -426.35198104 eV

  energy without entropy =     -426.35198104  energy(sigma->0) =     -426.35198104


--------------------------------------------------------------------------------------------------------




--------------------------------------- Iteration      1(   9)  ---------------------------------------


    POTLOK:  cpu time    3.0356: real time    3.0592
    SETDIJ:  cpu time    0.0653: real time    0.0656
    TRIAL :  cpu time    0.8579: real time    0.8669
    CORREC:  cpu time    3.3820: real time    3.4100
    CHARGE:  cpu time    0.1158: real time    0.1170
    --------------------------------------------
      LOOP:  cpu time    7.5061: real time    7.5697

 eigenvalue-minimisations  :     0
 total energy-change (2. order) :-0.4701910E+00  (-0.1569128E+00)
 number of electron     216.0000000 magnetization 
 augmentation part       -0.3994060 magnetization 

 Free energy of the ion-electron system (eV)
  ---------------------------------------------------
  alpha Z        PSCENC =        59.93625244
  Ewald energy   TEWEN  =     32288.69155692
  -Hartree energ DENC   =    -39346.41251993
  -exchange      EXHF   =         0.00000000
  -V(xc)+E(xc)   XCENC  =       442.26445859
  PAW double counting   =    102013.98133039  -101730.41525859
  entropy T*S    EENTRO =        -0.00000000
  eigenvalues    EBANDS =     -2575.81392509
  atomic energy  EATOM  =      8420.94593319
  ---------------------------------------------------
  free energy    TOTEN  =      -426.82217208 eV

  energy without entropy =     -426.82217208  energy(sigma->0) =     -426.82217208


--------------------------------------------------------------------------------------------------------




--------------------------------------- Iteration      1(  10)  ---------------------------------------


    POTLOK:  cpu time    3.0310: real time    3.0589
    SETDIJ:  cpu time    0.0643: real time    0.0645
    TRIAL :  cpu time    0.8601: real time    0.8689
    CORREC:  cpu time    3.3984: real time    3.4264
    CHARGE:  cpu time    0.1161: real time    0.1174
    --------------------------------------------
      LOOP:  cpu time    7.5307: real time    7.6221

 eigenvalue-minimisations  :     0
 total energy-change (2. order) :-0.1566637E+00  (-0.6783618E-01)
 number of electron     216.0000000 magnetization 
 augmentation part       -0.4004989 magnetization 

 Free energy of the ion-electron system (eV)
  ---------------------------------------------------
  alpha Z        PSCENC =        59.93625244
  Ewald energy   TEWEN  =     32288.69155692
  -Hartree energ DENC   =    -39345.53273486
  -exchange      EXHF   =         0.00000000
  -V(xc)+E(xc)   XCENC  =       442.15787865
  PAW double counting   =    102637.45198639  -102353.80009010
  entropy T*S    EENTRO =        -0.00000000
  eigenvalues    EBANDS =     -2576.82961841
  atomic energy  EATOM  =      8420.94593319
  ---------------------------------------------------
  free energy    TOTEN  =      -426.97883577 eV

  energy without entropy =     -426.97883577  energy(sigma->0) =     -426.97883577


--------------------------------------------------------------------------------------------------------




--------------------------------------- Iteration      1(  11)  ---------------------------------------


    POTLOK:  cpu time    3.0548: real time    3.0785
    SETDIJ:  cpu time    0.0643: real time    0.0645
    TRIAL :  cpu time    0.8576: real time    0.8667
    CORREC:  cpu time    3.4033: real time    3.4354
    CHARGE:  cpu time    0.1159: real time    0.1172
    --------------------------------------------
      LOOP:  cpu time    7.5914: real time    7.7147

 eigenvalue-minimisations  :     0
 total energy-change (2. order) :-0.6762444E-01  (-0.2890227E-01)
 number of electron     216.0000000 magnetization 
 augmentation part       -0.4004450 magnetization 

 Free energy of the ion-electron system (eV)
  ---------------------------------------------------
  alpha Z        PSCENC =        59.93625244
  Ewald energy   TEWEN  =     32288.69155692
  -Hartree energ DENC   =    -39340.52920849
  -exchange      EXHF   =         0.00000000
  -V(xc)+E(xc)   XCENC  =       442.08795153
  PAW double counting   =    102333.01420415  -102049.36184342
  entropy T*S    EENTRO =        -0.00000000
  eigenvalues    EBANDS =     -2581.83130654
  atomic energy  EATOM  =      8420.94593319
  ---------------------------------------------------
  free energy    TOTEN  =      -427.04646021 eV

  energy without entropy =     -427.04646021  energy(sigma->0) =     -427.04646021


--------------------------------------------------------------------------------------------------------




--------------------------------------- Iteration      1(  12)  ---------------------------------------


    POTLOK:  cpu time    3.0529: real time    3.0773
    SETDIJ:  cpu time    0.0638: real time    0.0641
    TRIAL :  cpu time    0.8602: real time    0.8697
    CORREC:  cpu time    3.3946: real time    3.4259
    CHARGE:  cpu time    0.1154: real time    0.1167
    --------------------------------------------
      LOOP:  cpu time    7.5612: real time    7.6433

 eigenvalue-minimisations  :     0
 total energy-change (2. order) :-0.2877677E-01  (-0.9652229E-02)
 number of electron     216.0000000 magnetization 
 augmentation part       -0.4006016 magnetization 

 Free energy of the ion-electron system (eV)
  ---------------------------------------------------
  alpha Z        PSCENC =        59.93625244
  Ewald energy   TEWEN  =     32288.69155692
  -Hartree energ DENC   =    -39338.45035183
  -exchange      EXHF   =         0.00000000
  -V(xc)+E(xc)   XCENC  =       442.04033430
  PAW double counting   =    102019.14134274  -101735.50930385
  entropy T*S    EENTRO =        -0.00000000
  eigenvalues    EBANDS =     -2583.87100090
  atomic energy  EATOM  =      8420.94593319
  ---------------------------------------------------
  free energy    TOTEN  =      -427.07523698 eV

  energy without entropy =     -427.07523698  energy(sigma->0) =     -427.07523698


--------------------------------------------------------------------------------------------------------




--------------------------------------- Iteration      1(  13)  ---------------------------------------


    POTLOK:  cpu time    3.0494: real time    3.0732
    SETDIJ:  cpu time    0.0647: real time    0.0649
    TRIAL :  cpu time    0.8597: real time    0.8686
    CORREC:  cpu time    3.3867: real time    3.4151
    CHARGE:  cpu time    0.1161: real time    0.1173
    --------------------------------------------
      LOOP:  cpu time    7.4885: real time    7.6130

 eigenvalue-minimisations  :     0
 total energy-change (2. order) :-0.9636860E-02  (-0.2833367E-02)
 number of electron     216.0000000 magnetization 
 augmentation part       -0.4001528 magnetization 

 Free energy of the ion-electron system (eV)
  ---------------------------------------------------
  alpha Z        PSCENC =        59.93625244
  Ewald energy   TEWEN  =     32288.69155692
  -Hartree energ DENC   =    -39338.42333516
  -exchange      EXHF   =         0.00000000
  -V(xc)+E(xc)   XCENC  =       442.02892606
  PAW double counting   =    101895.03785670  -101611.41678980
  entropy T*S    EENTRO =        -0.00000000
  eigenvalues    EBANDS =     -2583.88527419
  atomic energy  EATOM  =      8420.94593319
  ---------------------------------------------------
  free energy    TOTEN  =      -427.08487384 eV

  energy without entropy =     -427.08487384  energy(sigma->0) =     -427.08487384


--------------------------------------------------------------------------------------------------------




--------------------------------------- Iteration      1(  14)  ---------------------------------------


    POTLOK:  cpu time    3.0459: real time    3.0729
    SETDIJ:  cpu time    0.0636: real time    0.0638
    TRIAL :  cpu time    0.8601: real time    0.8685
    CORREC:  cpu time    3.4202: real time    3.4491
    CHARGE:  cpu time    0.1168: real time    0.1180
    --------------------------------------------
      LOOP:  cpu time    7.5895: real time    7.6572

 eigenvalue-minimisations  :     0
 total energy-change (2. order) :-0.2834920E-02  (-0.9374152E-03)
 number of electron     216.0000000 magnetization 
 augmentation part       -0.3999717 magnetization 

 Free energy of the ion-electron system (eV)
  ---------------------------------------------------
  alpha Z        PSCENC =        59.93625244
  Ewald energy   TEWEN  =     32288.69155692
  -Hartree energ DENC   =    -39338.39215547
  -exchange      EXHF   =         0.00000000
  -V(xc)+E(xc)   XCENC  =       442.02707527
  PAW double counting   =    101902.00023750  -101618.38355698
  entropy T*S    EENTRO =        -0.00000000
  eigenvalues    EBANDS =     -2583.91305163
  atomic energy  EATOM  =      8420.94593319
  ---------------------------------------------------
  free energy    TOTEN  =      -427.08770876 eV

  energy without entropy =     -427.08770876  energy(sigma->0) =     -427.08770876


--------------------------------------------------------------------------------------------------------




--------------------------------------- Iteration      1(  15)  ---------------------------------------


    POTLOK:  cpu time    3.0436: real time    3.0693
    SETDIJ:  cpu time    0.0635: real time    0.0638
    TRIAL :  cpu time    0.8635: real time    0.8755
    CORREC:  cpu time    3.3830: real time    3.4136
    CHARGE:  cpu time    0.1151: real time    0.1165
    --------------------------------------------
      LOOP:  cpu time    7.4822: real time    7.5933

 eigenvalue-minimisations  :     0
 total energy-change (2. order) :-0.9393730E-03  (-0.4362896E-03)
 number of electron     216.0000000 magnetization 
 augmentation part       -0.3996009 magnetization 

 Free energy of the ion-electron system (eV)
  ---------------------------------------------------
  alpha Z        PSCENC =        59.93625244
  Ewald energy   TEWEN  =     32288.69155692
  -Hartree energ DENC   =    -39338.00740490
  -exchange      EXHF   =         0.00000000
  -V(xc)+E(xc)   XCENC  =       442.00821620
  PAW double counting   =    101914.39739211  -101630.77884460
  entropy T*S    EENTRO =        -0.00000000
  eigenvalues    EBANDS =     -2584.28174949
  atomic energy  EATOM  =      8420.94593319
  ---------------------------------------------------
  free energy    TOTEN  =      -427.08864813 eV

  energy without entropy =     -427.08864813  energy(sigma->0) =     -427.08864813


--------------------------------------------------------------------------------------------------------




--------------------------------------- Iteration      1(  16)  ---------------------------------------


    POTLOK:  cpu time    3.0453: real time    3.0749
    SETDIJ:  cpu time    0.0638: real time    0.0640
    TRIAL :  cpu time    0.8594: real time    0.8683
    CORREC:  cpu time    3.3973: real time    3.4287
    CHARGE:  cpu time    0.1174: real time    0.1186
    --------------------------------------------
      LOOP:  cpu time    7.5083: real time    7.6080

 eigenvalue-minimisations  :     0
 total energy-change (2. order) :-0.4373409E-03  (-0.2075946E-03)
 number of electron     216.0000000 magnetization 
 augmentation part       -0.3994666 magnetization 

 Free energy of the ion-electron system (eV)
  ---------------------------------------------------
  alpha Z        PSCENC =        59.93625244
  Ewald energy   TEWEN  =     32288.69155692
  -Hartree energ DENC   =    -39338.26335222
  -exchange      EXHF   =         0.00000000
  -V(xc)+E(xc)   XCENC  =       442.01892203
  PAW double counting   =    101879.72603652  -101596.10922141
  entropy T*S    EENTRO =        -0.00000000
  eigenvalues    EBANDS =     -2584.03521294
  atomic energy  EATOM  =      8420.94593319
  ---------------------------------------------------
  free energy    TOTEN  =      -427.08908547 eV

  energy without entropy =     -427.08908547  energy(sigma->0) =     -427.08908547


--------------------------------------------------------------------------------------------------------




--------------------------------------- Iteration      1(  17)  ---------------------------------------


    POTLOK:  cpu time    3.0365: real time    3.0601
    SETDIJ:  cpu time    0.0647: real time    0.0649
    TRIAL :  cpu time    0.8588: real time    0.8679
    CORREC:  cpu time    3.3902: real time    3.4174
    CHARGE:  cpu time    0.1172: real time    0.1184
    --------------------------------------------
      LOOP:  cpu time    7.5036: real time    7.5695

 eigenvalue-minimisations  :     0
 total energy-change (2. order) :-0.2080318E-03  (-0.9121002E-04)
 number of electron     216.0000000 magnetization 
 augmentation part       -0.3994973 magnetization 

 Free energy of the ion-electron system (eV)
  ---------------------------------------------------
  alpha Z        PSCENC =        59.93625244
  Ewald energy   TEWEN  =     32288.69155692
  -Hartree energ DENC   =    -39338.34834191
  -exchange      EXHF   =         0.00000000
  -V(xc)+E(xc)   XCENC  =       442.02075588
  PAW double counting   =    101839.94539586  -101556.32818274
  entropy T*S    EENTRO =        -0.00000000
  eigenvalues    EBANDS =     -2583.95266315
  atomic energy  EATOM  =      8420.94593319
  ---------------------------------------------------
  free energy    TOTEN  =      -427.08929350 eV

  energy without entropy =     -427.08929350  energy(sigma->0) =     -427.08929350


--------------------------------------------------------------------------------------------------------




--------------------------------------- Iteration      1(  18)  ---------------------------------------


    POTLOK:  cpu time    3.0329: real time    3.0600
    SETDIJ:  cpu time    0.0632: real time    0.0635
    TRIAL :  cpu time    0.8578: real time    0.8663
    CORREC:  cpu time    3.4027: real time    3.4309
    CHARGE:  cpu time    0.1155: real time    0.1169
    --------------------------------------------
      LOOP:  cpu time    7.5494: real time    7.6158

 eigenvalue-minimisations  :     0
 total energy-change (2. order) :-0.9104374E-04  (-0.3332161E-04)
 number of electron     216.0000000 magnetization 
 augmentation part       -0.3996233 magnetization 

 Free energy of the ion-electron system (eV)
  ---------------------------------------------------
  alpha Z        PSCENC =        59.93625244
  Ewald energy   TEWEN  =     32288.69155692
  -Hartree energ DENC   =    -39338.39777675
  -exchange      EXHF   =         0.00000000
  -V(xc)+E(xc)   XCENC  =       442.02250834
  PAW double counting   =    101830.10097796  -101546.48323181
  entropy T*S    EENTRO =        -0.00000000
  eigenvalues    EBANDS =     -2583.90560485
  atomic energy  EATOM  =      8420.94593319
  ---------------------------------------------------
  free energy    TOTEN  =      -427.08938455 eV

  energy without entropy =     -427.08938455  energy(sigma->0) =     -427.08938455


--------------------------------------------------------------------------------------------------------




--------------------------------------- Iteration      1(  19)  ---------------------------------------


    POTLOK:  cpu time    3.0409: real time    3.0674
    SETDIJ:  cpu time    0.0641: real time    0.0644
    TRIAL :  cpu time    0.8570: real time    0.8684
    CORREC:  cpu time    3.3871: real time    3.4178
    CHARGE:  cpu time    0.1159: real time    0.1171
    --------------------------------------------
      LOOP:  cpu time    7.4872: real time    7.6144

 eigenvalue-minimisations  :     0
 total energy-change (2. order) :-0.3302010E-04  (-0.1253632E-04)
 number of electron     216.0000000 magnetization 
 augmentation part       -0.3996858 magnetization 

 Free energy of the ion-electron system (eV)
  ---------------------------------------------------
  alpha Z        PSCENC =        59.93625244
  Ewald energy   TEWEN  =     32288.69155692
  -Hartree energ DENC   =    -39338.40070964
  -exchange      EXHF   =         0.00000000
  -V(xc)+E(xc)   XCENC  =       442.02221881
  PAW double counting   =    101840.99207686  -101557.37371717
  entropy T*S    EENTRO =        -0.00000000
  eigenvalues    EBANDS =     -2583.90302898
  atomic energy  EATOM  =      8420.94593319
  ---------------------------------------------------
  free energy    TOTEN  =      -427.08941757 eV

  energy without entropy =     -427.08941757  energy(sigma->0) =     -427.08941757


--------------------------------------------------------------------------------------------------------




--------------------------------------- Iteration      1(  20)  ---------------------------------------


    POTLOK:  cpu time    3.0467: real time    3.0755
    SETDIJ:  cpu time    0.0650: real time    0.0652
    TRIAL :  cpu time    0.8669: real time    0.8757
    CORREC:  cpu time    3.3922: real time    3.4247
    CHARGE:  cpu time    0.1161: real time    0.1173
    --------------------------------------------
      LOOP:  cpu time    7.5374: real time    7.6115

 eigenvalue-minimisations  :     0
 total energy-change (2. order) :-0.1229371E-04  (-0.5075086E-05)
 number of electron     216.0000000 magnetization 
 augmentation part       -0.3997023 magnetization 

 Free energy of the ion-electron system (eV)
  ---------------------------------------------------
  alpha Z        PSCENC =        59.93625244
  Ewald energy   TEWEN  =     32288.69155692
  -Hartree energ DENC   =    -39338.41541262
  -exchange      EXHF   =         0.00000000
  -V(xc)+E(xc)   XCENC  =       442.02274967
  PAW double counting   =    101850.47117207  -101566.85278531
  entropy T*S    EENTRO =        -0.00000000
  eigenvalues    EBANDS =     -2583.88889622
  atomic energy  EATOM  =      8420.94593319
  ---------------------------------------------------
  free energy    TOTEN  =      -427.08942986 eV

  energy without entropy =     -427.08942986  energy(sigma->0) =     -427.08942986


--------------------------------------------------------------------------------------------------------




--------------------------------------- Iteration      1(  21)  ---------------------------------------


    POTLOK:  cpu time    3.0468: real time    3.0718
    SETDIJ:  cpu time    0.0642: real time    0.0644
    TRIAL :  cpu time    0.8576: real time    0.8660
    CORREC:  cpu time    3.3902: real time    3.4175
    CHARGE:  cpu time    0.1164: real time    0.1177
    --------------------------------------------
      LOOP:  cpu time    7.5468: real time    7.6110

 eigenvalue-minimisations  :     0
 total energy-change (2. order) :-0.4965041E-05  (-0.2313714E-05)
 number of electron     216.0000000 magnetization 
 augmentation part       -0.3996874 magnetization 

 Free energy of the ion-electron system (eV)
  ---------------------------------------------------
  alpha Z        PSCENC =        59.93625244
  Ewald energy   TEWEN  =     32288.69155692
  -Hartree energ DENC   =    -39338.40449445
  -exchange      EXHF   =         0.00000000
  -V(xc)+E(xc)   XCENC  =       442.02213164
  PAW double counting   =    101852.69167608  -101569.07333801
  entropy T*S    EENTRO =        -0.00000000
  eigenvalues    EBANDS =     -2583.89915264
  atomic energy  EATOM  =      8420.94593319
  ---------------------------------------------------
  free energy    TOTEN  =      -427.08943483 eV

  energy without entropy =     -427.08943483  energy(sigma->0) =     -427.08943483


--------------------------------------------------------------------------------------------------------




--------------------------------------- Iteration      1(  22)  ---------------------------------------


    POTLOK:  cpu time    3.0535: real time    3.0794
    SETDIJ:  cpu time    0.0637: real time    0.0639
    TRIAL :  cpu time    0.8591: real time    0.8674
    CORREC:  cpu time    3.4064: real time    3.4336
    CHARGE:  cpu time    0.1166: real time    0.1178
    --------------------------------------------
      LOOP:  cpu time    7.5831: real time    7.6505

 eigenvalue-minimisations  :     0
 total energy-change (2. order) :-0.2284491E-05  (-0.9655481E-06)
 number of electron     216.0000000 magnetization 
 augmentation part       -0.3996786 magnetization 

 Free energy of the ion-electron system (eV)
  ---------------------------------------------------
  alpha Z        PSCENC =        59.93625244
  Ewald energy   TEWEN  =     32288.69155692
  -Hartree energ DENC   =    -39338.40638759
  -exchange      EXHF   =         0.00000000
  -V(xc)+E(xc)   XCENC  =       442.02220099
  PAW double counting   =    101851.41786531  -101567.79970238
  entropy T*S    EENTRO =        -0.00000000
  eigenvalues    EBANDS =     -2583.89715599
  atomic energy  EATOM  =      8420.94593319
  ---------------------------------------------------
  free energy    TOTEN  =      -427.08943711 eV

  energy without entropy =     -427.08943711  energy(sigma->0) =     -427.08943711


--------------------------------------------------------------------------------------------------------




--------------------------------------- Iteration      1(  23)  ---------------------------------------


    POTLOK:  cpu time    3.0352: real time    3.0631
    SETDIJ:  cpu time    0.0653: real time    0.0655
    TRIAL :  cpu time    0.8593: real time    0.8681
    CORREC:  cpu time    3.3848: real time    3.4122
    CHARGE:  cpu time    0.1159: real time    0.1174
    --------------------------------------------
      LOOP:  cpu time    7.4824: real time    7.5653

 eigenvalue-minimisations  :     0
 total energy-change (2. order) :-0.9708019E-06  (-0.4116533E-06)
 number of electron     216.0000000 magnetization 
 augmentation part       -0.3996759 magnetization 

 Free energy of the ion-electron system (eV)
  ---------------------------------------------------
  alpha Z        PSCENC =        59.93625244
  Ewald energy   TEWEN  =     32288.69155692
  -Hartree energ DENC   =    -39338.40027905
  -exchange      EXHF   =         0.00000000
  -V(xc)+E(xc)   XCENC  =       442.02203591
  PAW double counting   =    101850.27696171  -101566.65882764
  entropy T*S    EENTRO =        -0.00000000
  eigenvalues    EBANDS =     -2583.90307156
  atomic energy  EATOM  =      8420.94593319
  ---------------------------------------------------
  free energy    TOTEN  =      -427.08943808 eV

  energy without entropy =     -427.08943808  energy(sigma->0) =     -427.08943808


--------------------------------------------------------------------------------------------------------




--------------------------------------- Iteration      1(  24)  ---------------------------------------


    POTLOK:  cpu time    3.0524: real time    3.0811
    SETDIJ:  cpu time    0.0638: real time    0.0641
    TRIAL :  cpu time    0.8588: real time    0.8683
    CORREC:  cpu time    3.3901: real time    3.4240
    CHARGE:  cpu time    0.1155: real time    0.1169
    --------------------------------------------
      LOOP:  cpu time    7.5548: real time    7.6291

 eigenvalue-minimisations  :     0
 total energy-change (2. order) :-0.4215835E-06  (-0.1704733E-06)
 number of electron     216.0000000 magnetization 
 augmentation part       -0.3996752 magnetization 

 Free energy of the ion-electron system (eV)
  ---------------------------------------------------
  alpha Z        PSCENC =        59.93625244
  Ewald energy   TEWEN  =     32288.69155692
  -Hartree energ DENC   =    -39338.39554586
  -exchange      EXHF   =         0.00000000
  -V(xc)+E(xc)   XCENC  =       442.02194869
  PAW double counting   =    101849.83242339  -101566.21426478
  entropy T*S    EENTRO =        -0.00000000
  eigenvalues    EBANDS =     -2583.90774249
  atomic energy  EATOM  =      8420.94593319
  ---------------------------------------------------
  free energy    TOTEN  =      -427.08943850 eV

  energy without entropy =     -427.08943850  energy(sigma->0) =     -427.08943850


--------------------------------------------------------------------------------------------------------




--------------------------------------- Iteration      1(  25)  ---------------------------------------


    POTLOK:  cpu time    3.0293: real time    3.0529
    SETDIJ:  cpu time    0.0643: real time    0.0645
    TRIAL :  cpu time    0.8583: real time    0.8673
    CORREC:  cpu time    3.3874: real time    3.4151
    CHARGE:  cpu time    0.1161: real time    0.1173
    --------------------------------------------
      LOOP:  cpu time    7.5058: real time    7.5785

 eigenvalue-minimisations  :     0
 total energy-change (2. order) :-0.1742446E-06  (-0.7293450E-07)
 number of electron     216.0000000 magnetization 
 augmentation part       -0.3996759 magnetization 

 Free energy of the ion-electron system (eV)
  ---------------------------------------------------
  alpha Z        PSCENC =        59.93625244
  Ewald energy   TEWEN  =     32288.69155692
  -Hartree energ DENC   =    -39338.39631841
  -exchange      EXHF   =         0.00000000
  -V(xc)+E(xc)   XCENC  =       442.02203287
  PAW double counting   =    101849.64573886  -101566.02757002
  entropy T*S    EENTRO =        -0.00000000
  eigenvalues    EBANDS =     -2583.90706454
  atomic energy  EATOM  =      8420.94593319
  ---------------------------------------------------
  free energy    TOTEN  =      -427.08943868 eV

  energy without entropy =     -427.08943868  energy(sigma->0) =     -427.08943868


--------------------------------------------------------------------------------------------------------




--------------------------------------- Iteration      1(  26)  ---------------------------------------


    POTLOK:  cpu time    3.0176: real time    3.0442
    SETDIJ:  cpu time    0.0637: real time    0.0639
    TRIAL :  cpu time    0.8580: real time    0.8666
    CORREC:  cpu time    3.3931: real time    3.4217
    EDDIAG:  cpu time    0.3238: real time    0.3276
    CHARGE:  cpu time    0.1143: real time    0.1155
    --------------------------------------------
      LOOP:  cpu time    7.8681: real time    7.9443

 eigenvalue-minimisations  :     0
 total energy-change (2. order) :-0.7459312E-07  (-0.3282110E-07)
 number of electron     216.0000000 magnetization 
 augmentation part       -0.3996756 magnetization 

 Free energy of the ion-electron system (eV)
  ---------------------------------------------------
  alpha Z        PSCENC =        59.93625244
  Ewald energy   TEWEN  =     32288.69155692
  -Hartree energ DENC   =    -39338.39621227
  -exchange      EXHF   =         0.00000000
  -V(xc)+E(xc)   XCENC  =       442.02202107
  PAW double counting   =    101849.49758122  -101565.87939604
  entropy T*S    EENTRO =        -0.00000000
  eigenvalues    EBANDS =     -2583.90717528
  atomic energy  EATOM  =      8420.94593319
  ---------------------------------------------------
  free energy    TOTEN  =      -427.08943875 eV

  energy without entropy =     -427.08943875  energy(sigma->0) =     -427.08943875


--------------------------------------------------------------------------------------------------------


  average scaling for gradient   0.8895


 average (electrostatic) potential at core
  the test charge radii are     0.5770  0.5955
  (the norm of the test charge is              1.0000)
       1 -85.6729       2 -85.6714       3 -85.6751       4 -85.6783       5 -85.6692
       6 -85.6680       7 -85.6746       8 -85.6709       9 -85.6709      10 -85.6743
      11 -85.6683      12 -85.6694      13 -85.6740      14 -85.6705      15 -85.6679
      16 -85.6687      17 -85.6702      18 -85.6715      19 -85.6727      20 -85.6704
      21 -85.6678      22 -85.6673      23 -85.6799      24 -85.6794      25 -85.6678
      26 -85.6689      27 -85.6714      28 -85.6743      29 -85.6681      30 -85.6680
      31 -85.6767      32 -85.6739      33 -85.6699      34 -85.6687      35 -85.6686
      36 -85.6695      37 -85.6711      38 -85.6722      39 -85.6724      40 -85.6718
      41 -85.6719      42 -85.6730      43 -85.6703      44 -85.6730      45 -85.6680
      46 -85.6684      47 -85.6693      48 -85.6684      49 -85.6718      50 -85.6706
      51 -89.6048      52-120.1219      53-120.1220
 
 
 
 E-fermi :  -4.1003     XC(G=0):  -2.6772     alpha+bet : -2.1113

 Fermi energy:        -4.1002599815

 k-point     1 :       0.0000    0.0000    0.0000
  band No.  band energies     occupation 
      1     -27.3320      2.00000
      2     -26.3479      2.00000
      3     -22.1023      2.00000
      4     -21.1679      2.00000
      5     -21.1670      2.00000
      6     -21.1659      2.00000
      7     -21.1647      2.00000
      8     -21.1635      2.00000
      9     -21.1634      2.00000
     10     -19.3296      2.00000
     11     -19.3293      2.00000
     12     -19.3292      2.00000
     13     -19.3291      2.00000
     14     -19.3290      2.00000
     15     -19.3287      2.00000
     16     -18.4355      2.00000
     17     -18.4354      2.00000
     18     -18.4351      2.00000
     19     -18.4347      2.00000
     20     -18.4346      2.00000
     21     -18.4344      2.00000
     22     -16.2759      2.00000
     23     -16.2759      2.00000
     24     -16.2752      2.00000
     25     -16.2749      2.00000
     26     -16.2735      2.00000
     27     -16.2733      2.00000
     28     -15.3044      2.00000
     29     -15.3042      2.00000
     30     -15.3041      2.00000
     31     -15.3040      2.00000
     32     -15.3032      2.00000
     33     -15.3031      2.00000
     34     -13.9566      2.00000
     35     -13.9565      2.00000
     36     -13.9560      2.00000
     37     -13.9558      2.00000
     38     -13.9558      2.00000
     39     -13.9553      2.00000
     40     -12.1817      2.00000
     41     -11.5841      2.00000
     42     -11.5840      2.00000
     43     -11.5835      2.00000
     44     -11.5835      2.00000
     45     -11.5827      2.00000
     46     -11.5825      2.00000
     47     -11.4973      2.00000
     48     -11.4973      2.00000
     49     -11.4966      2.00000
     50     -11.4965      2.00000
     51     -11.4954      2.00000
     52     -11.4952      2.00000
     53     -11.0401      2.00000
     54     -10.9781      2.00000
     55     -10.9764      2.00000
     56     -10.2832      2.00000
     57     -10.1299      2.00000
     58     -10.1298      2.00000
     59     -10.1286      2.00000
     60     -10.1282      2.00000
     61     -10.1280      2.00000
     62     -10.1279      2.00000
     63      -9.1706      2.00000
     64      -9.1684      2.00000
     65      -9.1652      2.00000
     66      -9.1645      2.00000
     67      -9.1624      2.00000
     68      -9.1623      2.00000
     69      -8.8710      2.00000
     70      -8.8699      2.00000
     71      -8.8697      2.00000
     72      -8.8688      2.00000
     73      -8.8685      2.00000
     74      -8.8684      2.00000
     75      -8.8058      2.00000
     76      -8.8056      2.00000
     77      -8.8055      2.00000
     78      -8.8053      2.00000
     79      -8.8045      2.00000
     80      -8.8038      2.00000
     81      -7.4423      2.00000
     82      -7.4408      2.00000
     83      -7.2240      2.00000
     84      -7.2231      2.00000
     85      -7.2227      2.00000
     86      -7.2222      2.00000
     87      -7.2205      2.00000
     88      -7.2204      2.00000
     89      -7.0358      2.00000
     90      -7.0356      2.00000
     91      -7.0342      2.00000
     92      -7.0340      2.00000
     93      -7.0335      2.00000
     94      -7.0333      2.00000
     95      -6.1381      2.00000
     96      -6.1369      2.00000
     97      -6.1366      2.00000
     98      -6.1357      2.00000
     99      -6.1353      2.00000
    100      -6.1346      2.00000
    101      -5.7482      2.00000
    102      -5.7460      2.00000
    103      -4.1521      2.00000
    104      -4.1517      2.00000
    105      -4.1513      2.00000
    106      -4.1507      2.00000
    107      -4.1482      2.00000
    108      -4.1480      2.00000
    109      -1.3575      0.00000
    110      -1.3572      0.00000
    111      -1.3550      0.00000
    112      -1.3547      0.00000
    113      -1.3544      0.00000
    114      -1.3542      0.00000
    115       0.0004      0.00000
    116       0.4984      0.00000
    117       0.4994      0.00000
    118       0.5001      0.00000
    119       0.5015      0.00000
    120       0.5017      0.00000
    121       0.5043      0.00000
    122       0.6071      0.00000
    123       1.0077      0.00000
    124       1.1073      0.00000
    125       1.2952      0.00000
    126       1.3997      0.00000
    127       1.4482      0.00000
    128       1.5067      0.00000
    129       1.5123      0.00000
    130       1.5233      0.00000
    131       1.5406      0.00000
    132       1.9288      0.00000
    133       2.1904      0.00000
    134       2.2477      0.00000
    135       2.2490      0.00000
    136       2.2714      0.00000


--------------------------------------------------------------------------------------------------------


 soft charge-density along one line, spin component           1
         0         1         2         3         4         5         6         7         8         9
 total charge-density along one line
 
 pseudopotential strength for first ion, spin component:           1
 12.704  21.377  -0.000   0.000   0.000  -0.000   0.000   0.000
 21.377  35.972  -0.000   0.000   0.000  -0.000   0.000   0.000
 -0.000  -0.000  -3.215  -0.000   0.000  -5.762  -0.000   0.000
  0.000   0.000  -0.000  -3.219  -0.000  -0.000  -5.769  -0.000
  0.000   0.000   0.000  -0.000  -3.215   0.000  -0.000  -5.762
 -0.000  -0.000  -5.762  -0.000   0.000 -10.304  -0.000   0.000
  0.000   0.000  -0.000  -5.769  -0.000  -0.000 -10.317  -0.000
  0.000   0.000   0.000  -0.000  -5.762   0.000  -0.000 -10.304
 total augmentation occupancy for first ion, spin component:           1
  7.415  -2.550  -0.000  -0.002  -0.000   0.000   0.001   0.000
 -2.550   0.916   0.000   0.001  -0.000  -0.000  -0.000   0.000
 -0.000   0.000   6.889  -0.007   0.000  -2.287   0.003  -0.000
 -0.002   0.001  -0.007   2.993  -0.000   0.003  -0.763   0.000
 -0.000  -0.000   0.000  -0.000   6.889  -0.000   0.000  -2.287
  0.000  -0.000  -2.287   0.003  -0.000   0.775  -0.001   0.000
  0.001  -0.000   0.003  -0.763   0.000  -0.001   0.202  -0.000
  0.000   0.000  -0.000   0.000  -2.287   0.000  -0.000   0.775


------------------------ aborting loop because EDIFF is reached ----------------------------------------


    FORLOC:  cpu time    0.0506: real time    0.0512
    FORNL :  cpu time    0.6755: real time    0.6792
    FORCOR:  cpu time    3.1097: real time    3.1380
    OFIELD:  cpu time    0.0014: real time    0.0014

 VOLUME and BASIS-vectors are now :
 -----------------------------------------------------------------------------
  energy-cutoff  :     1000.00
  volume of cell :     2631.08
      direct lattice vectors                 reciprocal lattice vectors
    12.325000000  0.000000000  0.000000000     0.081135903  0.046843835  0.000000000
    -6.162500000 10.673763102  0.000000000     0.000000000  0.093687670  0.000000000
     0.000000000  0.000000000 20.000000000     0.000000000  0.000000000  0.050000000

  length of vectors
    12.325000000 12.325000000 20.000000000     0.093687670  0.093687670  0.050000000


 FORCES acting on ions:
    Electron-Ion                     Ewald-Force                    Non-Local-Force
 -----------------------------------------------------------------------------------------------
   0.515E+01 0.448E+01 0.204E+02   -.516E+01 -.448E+01 -.204E+02   0.939E-02 -.138E-02 0.829E-02
   0.768E+01 0.374E+01 0.244E+02   -.770E+01 -.373E+01 -.244E+02   0.115E-01 -.540E-02 -.543E-02
   0.338E+01 0.899E+01 0.276E+02   -.338E+01 -.900E+01 -.276E+02   -.922E-03 0.217E-01 0.995E-02
   0.462E+01 0.669E+01 0.367E+02   -.463E+01 -.670E+01 -.368E+02   0.203E-01 0.521E-02 0.101E-01
   0.551E+01 0.130E+01 0.206E+02   -.551E+01 -.130E+01 -.206E+02   0.333E-02 -.947E-02 -.100E-02
   0.568E+01 -.108E+01 0.209E+02   -.568E+01 0.109E+01 -.209E+02   -.749E-02 0.127E-02 -.940E-02
   0.859E+01 0.317E+01 0.338E+02   -.861E+01 -.316E+01 -.338E+02   0.245E-01 -.259E-01 0.164E-02
   0.832E+01 -.296E+01 0.352E+02   -.833E+01 0.297E+01 -.352E+02   0.456E-02 -.131E-01 -.966E-02
   -.399E+01 0.810E+01 0.278E+02   0.400E+01 -.811E+01 -.278E+02   -.819E-02 -.564E-02 -.854E-02
   -.623E+01 0.524E+01 0.357E+02   0.625E+01 -.526E+01 -.357E+02   -.400E-01 0.246E-01 0.882E-02
   0.142E+01 -.137E+01 0.178E+02   -.141E+01 0.137E+01 -.177E+02   0.107E-02 -.173E-02 -.383E-02
   0.120E+01 -.999E+00 0.168E+02   -.120E+01 0.998E+00 -.168E+02   -.106E-01 0.477E-02 0.294E-02
   0.333E+01 -.718E+01 0.383E+02   -.335E+01 0.720E+01 -.383E+02   0.408E-01 -.176E-01 0.400E-02
   0.181E+01 -.899E+01 0.286E+02   -.183E+01 0.900E+01 -.286E+02   0.117E-01 -.364E-05 -.192E-01
   -.495E+01 0.307E+01 0.200E+02   0.495E+01 -.307E+01 -.200E+02   0.794E-02 -.370E-02 0.209E-03
   -.689E+01 0.203E+01 0.220E+02   0.689E+01 -.203E+01 -.220E+02   -.570E-02 0.900E-02 -.121E-01
   -.850E+00 -.338E+00 0.162E+02   0.858E+00 0.334E+00 -.162E+02   -.419E-02 0.163E-02 0.127E-02
   0.410E+00 0.299E+01 0.170E+02   -.406E+00 -.300E+01 -.170E+02   -.567E-02 0.339E-02 0.915E-02
   -.135E+01 -.825E+01 0.239E+02   0.134E+01 0.826E+01 -.239E+02   0.117E-01 -.615E-02 0.193E-02
   -.684E+00 -.452E+01 0.184E+02   0.677E+00 0.452E+01 -.184E+02   0.364E-02 -.418E-02 -.152E-02
   0.770E+01 -.340E+01 0.258E+02   -.770E+01 0.340E+01 -.257E+02   0.243E-02 -.616E-02 -.268E-01
   0.502E+01 -.421E+01 0.220E+02   -.502E+01 0.421E+01 -.220E+02   -.691E-02 0.609E-02 -.107E-01
   -.160E+01 0.311E+01 0.424E+02   0.160E+01 -.312E+01 -.424E+02   -.168E-01 0.167E-01 0.339E-01
   -.224E+01 -.489E+01 0.414E+02   0.223E+01 0.490E+01 -.414E+02   0.159E-01 -.237E-01 0.197E-01
   0.258E+01 -.105E+01 0.178E+02   -.257E+01 0.105E+01 -.178E+02   0.363E-03 -.133E-02 -.770E-02
   0.555E+00 0.228E+01 0.179E+02   -.551E+00 -.228E+01 -.179E+02   -.886E-02 0.541E-02 0.170E-02
   -.911E+01 0.124E+01 0.296E+02   0.912E+01 -.125E+01 -.296E+02   0.160E-02 0.133E-01 -.464E-02
   -.869E+01 -.349E+01 0.279E+02   0.871E+01 0.349E+01 -.279E+02   -.189E-01 0.132E-01 0.606E-02
   0.300E+01 -.603E+01 0.227E+02   -.301E+01 0.603E+01 -.227E+02   0.948E-02 0.120E-02 -.141E-01
   0.268E+00 -.248E+01 0.188E+02   -.272E+00 0.248E+01 -.188E+02   -.268E-02 0.312E-02 -.696E-02
   -.653E+01 -.686E+01 0.322E+02   0.654E+01 0.687E+01 -.322E+02   -.204E-01 -.131E-01 0.477E-02
   -.429E+01 -.791E+01 0.249E+02   0.429E+01 0.792E+01 -.249E+02   0.594E-03 -.928E-02 0.900E-02
   0.332E+00 0.132E+01 0.167E+02   -.336E+00 -.132E+01 -.167E+02   0.849E-02 -.618E-02 0.479E-02
   0.873E+00 0.130E+01 0.177E+02   -.877E+00 -.130E+01 -.177E+02   -.884E-03 0.301E-02 -.435E-02
   -.348E+01 0.521E+00 0.188E+02   0.348E+01 -.523E+00 -.188E+02   0.421E-02 -.113E-02 0.130E-02
   -.306E+01 -.127E+01 0.185E+02   0.306E+01 0.127E+01 -.185E+02   -.800E-02 0.463E-02 0.484E-03
   -.600E+01 -.312E+01 0.206E+02   0.601E+01 0.311E+01 -.206E+02   -.797E-02 0.195E-02 0.308E-02
   -.373E+01 -.299E+01 0.182E+02   0.373E+01 0.299E+01 -.182E+02   -.778E-02 0.166E-02 0.979E-02
   -.343E+01 -.443E+01 0.192E+02   0.343E+01 0.443E+01 -.192E+02   -.646E-02 -.225E-02 0.722E-02
   -.518E+00 -.112E+01 0.171E+02   0.518E+00 0.112E+01 -.171E+02   0.262E-02 -.771E-03 0.840E-02
   0.129E+01 0.317E+01 0.176E+02   -.129E+01 -.318E+01 -.176E+02   -.466E-02 0.479E-02 0.821E-02
   0.404E+01 0.632E+01 0.213E+02   -.404E+01 -.633E+01 -.213E+02   0.363E-02 0.306E-02 0.119E-01
   0.349E+00 0.542E+01 0.189E+02   -.342E+00 -.543E+01 -.189E+02   -.432E-02 0.503E-02 0.778E-03
   -.825E-01 0.884E+01 0.249E+02   0.924E-01 -.885E+01 -.249E+02   -.151E-01 0.776E-02 0.681E-02
   -.102E+01 0.199E+01 0.186E+02   0.103E+01 -.199E+01 -.186E+02   0.277E-02 -.304E-02 -.365E-02
   -.405E+01 0.503E+01 0.215E+02   0.406E+01 -.503E+01 -.215E+02   -.104E-01 0.230E-02 -.868E-02
   -.841E+00 -.223E+01 0.176E+02   0.837E+00 0.223E+01 -.176E+02   0.998E-02 -.251E-02 0.276E-02
   -.203E+01 0.783E+00 0.170E+02   0.202E+01 -.781E+00 -.170E+02   -.603E-03 0.235E-02 -.651E-02
   0.199E+00 -.139E+01 0.169E+02   -.202E+00 0.139E+01 -.169E+02   0.651E-02 -.405E-02 0.597E-02
   0.220E+01 0.159E+01 0.170E+02   -.221E+01 -.158E+01 -.170E+02   0.388E-02 0.985E-03 0.308E-02
   0.350E-01 -.142E-01 -.290E+03   -.356E-01 0.154E-01 0.290E+03   -.346E-02 0.227E-02 -.136E-01
   -.229E+03 0.156E+03 -.447E+03   0.279E+03 -.190E+03 0.450E+03   -.512E+02 0.348E+02 -.346E+01
   0.229E+03 -.156E+03 -.427E+03   -.279E+03 0.190E+03 0.424E+03   0.512E+02 -.348E+02 0.306E+01
 -----------------------------------------------------------------------------------------------
   -.247E-02 0.106E-01 0.367E+00   0.000E+00 0.568E-13 0.171E-12   0.224E-02 -.106E-01 -.368E+00
 
 
 POSITION                                       TOTAL-FORCE (eV/Angst)
 -----------------------------------------------------------------------------------
     11.98348      0.00342      0.01417         0.002820     -0.001041     -0.000942
     -0.34154      1.42665      0.01100        -0.002250     -0.000165     -0.002491
      2.12355      0.00315      0.01249        -0.001181      0.007416     -0.004672
      2.12326      1.42653      0.00641         0.009895      0.000070     -0.003583
     10.75099      2.13819      0.01213         0.000202     -0.004936      0.000232
     -1.57382      3.56123      0.01110        -0.007580      0.005176     -0.001201
      0.89078      2.13854      0.00548         0.006721     -0.016086      0.004751
      0.89099      3.56147      0.00181        -0.013403     -0.001014      0.013862
      4.58864      0.00346      0.01135         0.004606     -0.016801     -0.002376
      4.58894      1.42623      0.00646        -0.018893      0.010534      0.016833
      9.51854      4.27281      0.01369         0.006905     -0.003558      0.000266
     -2.80632      5.69591      0.01434        -0.006208      0.003279      0.000844
      2.12300      4.27302      0.00000         0.020297     -0.002983      0.023552
      2.12335      5.69594      0.00581        -0.001590      0.010264     -0.001329
      7.05344      0.00333      0.01399         0.008500     -0.004705     -0.000181
      7.05353      1.42635      0.01368        -0.001486      0.004296     -0.003209
      8.28610      6.40752      0.01601         0.003420     -0.001572     -0.000688
     -4.03885      7.83070      0.01636        -0.001823      0.000976     -0.000108
      3.35586      6.40753      0.01007         0.003988      0.000498     -0.000961
      3.35599      7.83072      0.01320        -0.003485      0.000617     -0.000406
     -0.34146      4.27290      0.00723        -0.002009     -0.000990     -0.003513
     -0.34138      5.69591      0.00946        -0.008429      0.005458     -0.000727
      3.35624      2.13791      0.00222        -0.010818      0.009601      0.022823
      3.35573      3.56155      0.00139         0.011592     -0.012649      0.014560
     -1.57395      6.40758      0.01311         0.006288     -0.004218     -0.000520
     -1.57385      7.83068      0.01438        -0.004544      0.003741      0.000163
      5.82093      2.13784      0.01033         0.017278      0.004266     -0.001605
      5.82114      3.56097      0.01156        -0.004422      0.006649     -0.002554
      0.89092      6.40755      0.00907         0.003953      0.001796     -0.001704
      0.89106      7.83068      0.01235        -0.007070      0.003059      0.000438
      4.58871      4.27293      0.00850        -0.009421     -0.004962     -0.007729
      4.58852      5.69606      0.01149         0.001728      0.001024     -0.003085
      9.51845      0.00337      0.01490         0.004504     -0.004549      0.000235
      9.51855      1.42644      0.01438        -0.004965      0.005902     -0.000252
      8.28593      2.13803      0.01453         0.005791     -0.003739      0.000662
      8.28613      3.56115      0.01464        -0.004071      0.001844      0.000092
      7.05356      4.27269      0.01457         0.003754     -0.000895     -0.000229
      7.05362      5.69588      0.01553        -0.002263      0.001164     -0.000112
      5.82112      6.40755      0.01489        -0.002144      0.001882      0.000096
      5.82102      7.83073      0.01579         0.002553      0.000554     -0.000273
      7.05363      8.54227      0.01631        -0.004431      0.000662      0.001147
     -5.27149      9.96549      0.01495        -0.000891     -0.002612     -0.001805
     -2.80638      8.54234      0.01558         0.003496     -0.002024     -0.000909
     -2.80627      9.96553      0.01362        -0.004864     -0.000379     -0.003245
     -0.34149      8.54239      0.01378         0.005817     -0.004110      0.000324
     -0.34138      9.96550      0.01354        -0.005434      0.000228     -0.000814
      2.12343      8.54232      0.01336         0.005575     -0.001529      0.000850
      2.12354      9.96544      0.01469        -0.005909      0.004098     -0.001812
      4.58846      8.54235      0.01505         0.003451     -0.002833      0.000979
      4.58853      9.96550      0.01517        -0.003383      0.003283      0.000298
      3.04930      2.68154      4.71937        -0.003932      0.003513      0.008060
      4.02070      2.02068      4.78379        -0.581456      0.395182     -0.064824
      2.07767      3.34267      4.65992         0.585222     -0.398679      0.006790
 -----------------------------------------------------------------------------------
    total drift:                               -0.000232      0.000072     -0.000802


--------------------------------------------------------------------------------------------------------



  FREE ENERGIE OF THE ION-ELECTRON SYSTEM (eV)
  ---------------------------------------------------
  free  energy   TOTEN  =      -427.08943875 eV

  energy  without entropy=     -427.08943875  energy(sigma->0) =     -427.08943875
 


--------------------------------------------------------------------------------------------------------


    POTLOK:  cpu time    3.0918: real time    3.1163


--------------------------------------------------------------------------------------------------------


 writing wavefunctions
     LOOP+:  cpu time  201.7594: real time  204.4496
    4ORBIT:  cpu time    0.0000: real time    0.0000

 total amount of memory used by VASP MPI-rank0    85439. kBytes
=======================================================================

   base      :      30000. kBytes
   nonl-proj :       6586. kBytes
   fftplans  :      14299. kBytes
   grid      :      23511. kBytes
   one-center:          6. kBytes
   wavefun   :      11037. kBytes
 
  
  
 General timing and accounting informations for this job:
 ========================================================
  
                  Total CPU time used (sec):      235.118
                            User time (sec):      218.055
                          System time (sec):       17.062
                         Elapsed time (sec):      239.581
  
                   Maximum memory used (kb):      679632.
                   Average memory used (kb):          N/A
  
                          Minor page faults:       345394
                          Major page faults:           89
                 Voluntary context switches:         3560
