53
Lattice="12.325 0.0 0.0 -6.1625 10.673763102 0.0 0.0 0.0 30.0" Properties=species:S:1:pos:R:3:forces:R:3 energy=-486.65169368 free_energy=-486.65169368 pbc="T T T"
C       11.98348000       0.00342000       0.01417000       0.00239500       0.00067500      -0.00029900
C       -0.34154000       1.42665000       0.01100000       0.00150700       0.00206600       0.00020000
C        2.12355000       0.00315000       0.01249000       0.00207500      -0.00224600       0.00188900
C        2.12326000       1.42653000       0.00641000      -0.00222600       0.00077700      -0.00179700
C       10.75099000       2.13819000       0.01213000       0.00129600      -0.00422500       0.00185200
C       -1.57382000       3.56123000       0.01110000      -0.00410700       0.00685500       0.00035900
C        0.89078000       2.13854000       0.00548000      -0.00225500      -0.00087100      -0.00189800
C        0.89099000       3.56147000       0.00181000      -0.00941200       0.00608400      -0.00819600
C        4.58864000       0.00346000       0.01135000       0.00592700       0.00029100      -0.00141700
C        4.58894000       1.42623000       0.00646000      -0.00121200      -0.00004500      -0.00960200
C        9.51854000       4.27281000       0.01369000       0.00756100      -0.00693500       0.00047500
C       -2.80632000       5.69591000       0.01434000      -0.00818000       0.00453400       0.00118200
C        2.12300000       4.27302000       0.00000000      -0.00036000       0.00729000      -0.01254000
C        2.12335000       5.69594000       0.00581000      -0.00305800      -0.00611000      -0.00049000
C        7.05344000       0.00333000       0.01399000       0.00561000      -0.00240200       0.00153200
C        7.05353000       1.42635000       0.01368000      -0.00567800       0.00513600      -0.00079900
C        8.28610000       6.40752000       0.01601000       0.00359000      -0.00216300      -0.00040600
C       -4.03885000       7.83070000       0.01636000      -0.00255000       0.00278300       0.00018000
C        3.35586000       6.40753000       0.01007000       0.00187800      -0.00097600       0.00146800
C        3.35599000       7.83072000       0.01320000      -0.00297700      -0.00043300       0.00028200
C       -0.34146000       4.27290000       0.00723000       0.00944700      -0.00675700      -0.00109100
C       -0.34138000       5.69591000       0.00946000      -0.00648700       0.00244800       0.00208800
C        3.35624000       2.13791000       0.00222000       0.00398600      -0.00294200      -0.01860200
C        3.35573000       3.56155000       0.00139000       0.00110800       0.00386600      -0.01251800
C       -1.57395000       6.40758000       0.01311000       0.00986500      -0.00397100      -0.00050300
C       -1.57385000       7.83068000       0.01438000      -0.00490800       0.00423900       0.00061900
C        5.82093000       2.13784000       0.01033000       0.00394500      -0.00473900      -0.00332600
C        5.82114000       3.56097000       0.01156000      -0.00320500       0.00054100       0.00199900
C        0.89092000       6.40755000       0.00907000       0.00463700      -0.00111800       0.00133500
C        0.89106000       7.83068000       0.01235000      -0.00851700      -0.00005900       0.00062400
C        4.58871000       4.27293000       0.00850000       0.00064200      -0.00428100       0.00018000
C        4.58852000       5.69606000       0.01149000       0.00027800       0.00513100       0.00050400
C        9.51845000       0.00337000       0.01490000       0.00561500      -0.00561600       0.00055000
C        9.51855000       1.42644000       0.01438000      -0.00436200       0.00886100      -0.00014700
C        8.28593000       2.13803000       0.01453000       0.00311900      -0.00548800       0.00129100
C        8.28613000       3.56115000       0.01464000      -0.00478900       0.00173700       0.00065400
C        7.05356000       4.27269000       0.01457000       0.00236300      -0.00097400       0.00111500
C        7.05362000       5.69588000       0.01553000      -0.00275800       0.00033500       0.00019300
C        5.82112000       6.40755000       0.01489000      -0.00145300       0.00090600       0.00032000
C        5.82102000       7.83073000       0.01579000       0.00091600       0.00169900      -0.00011900
C        7.05363000       8.54227000       0.01631000      -0.00268200      -0.00059500       0.00135300
C       -5.27149000       9.96549000       0.01495000      -0.00086000      -0.00165700      -0.00104800
C       -2.80638000       8.54234000       0.01558000       0.00268500      -0.00060800      -0.00012600
C       -2.80627000       9.96553000       0.01362000      -0.00314800       0.00204800       0.00064700
C       -0.34149000       8.54239000       0.01378000       0.00609900      -0.00142300       0.00078700
C       -0.34138000       9.96550000       0.01354000      -0.00750700       0.00353700       0.00135600
C        2.12343000       8.54232000       0.01336000       0.00640000      -0.00139700       0.00119400
C        2.12354000       9.96544000       0.01469000      -0.00800700       0.00430200      -0.00184400
C        4.58846000       8.54235000       0.01505000       0.00498200      -0.00412300       0.00120400
C        4.58853000       9.96550000       0.01517000      -0.00306300       0.00366600       0.00075900
C        3.04930000       2.68154000       3.24698000      -0.00365000       0.00137400       0.01119400
O        4.02070000       2.02068000       3.31141000      -0.52061600       0.36017500      -0.02200600
O        2.07767000       3.34267000       3.18753000       0.53010000      -0.36920300       0.05938800
53
Lattice="12.325 0.0 0.0 -6.1625 10.673763102 0.0 0.0 0.0 30.0" Properties=species:S:1:pos:R:3:forces:R:3 energy=-486.63998991 free_energy=-486.63998991 pbc="T T T"
C       11.98348000       0.00342000       0.01417000       0.00607000      -0.00118100       0.00129500
C       -0.34154000       1.42665000       0.01100000      -0.00623200      -0.00721000       0.00162000
C        2.12355000       0.00315000       0.01249000      -0.00059700       0.01552000      -0.00594300
C        2.12326000       1.42653000       0.00641000      -0.00741000      -0.02277400      -0.03671600
C       10.75099000       2.13819000       0.01213000       0.00242100      -0.00836300      -0.00001400
C       -1.57382000       3.56123000       0.01110000      -0.00802500       0.00676000      -0.00128100
C        0.89078000       2.13854000       0.00548000       0.01809700      -0.03274300       0.00594200
C        0.89099000       3.56147000       0.00181000       0.00052100       0.01206500       0.01533400
C        4.58864000       0.00346000       0.01135000      -0.00144700      -0.01766600       0.00321000
C        4.58894000       1.42623000       0.00646000      -0.00772900      -0.00113400       0.01688600
C        9.51854000       4.27281000       0.01369000       0.00606200      -0.00446700       0.00062600
C       -2.80632000       5.69591000       0.01434000      -0.00637700       0.00502000       0.00107000
C        2.12300000       4.27302000       0.00000000       0.02157400       0.00903900      -0.00801300
C        2.12335000       5.69594000       0.00581000       0.00416900       0.00052000       0.00223200
C        7.05344000       0.00333000       0.01399000       0.00830700      -0.00527200       0.00019100
C        7.05353000       1.42635000       0.01368000       0.00266700       0.00104000      -0.00170900
C        8.28610000       6.40752000       0.01601000       0.00137100      -0.00011700      -0.00071000
C       -4.03885000       7.83070000       0.01636000      -0.00191000       0.00326300       0.00069700
C        3.35586000       6.40753000       0.01007000       0.00509300      -0.00661300       0.00600300
C        3.35599000       7.83072000       0.01320000      -0.00290100      -0.00593900      -0.00016300
C       -0.34146000       4.27290000       0.00723000      -0.00784600       0.00360100       0.00008200
C       -0.34138000       5.69591000       0.00946000      -0.00711200       0.00630800       0.00031800
C        3.35624000       2.13791000       0.00222000      -0.01563400       0.01846000      -0.02076600
C        3.35573000       3.56155000       0.00139000       0.01782600       0.00473700      -0.05768600
C       -1.57395000       6.40758000       0.01311000       0.00581700      -0.00319700      -0.00039100
C       -1.57385000       7.83068000       0.01438000      -0.00633600       0.00591900       0.00057800
C        5.82093000       2.13784000       0.01033000       0.01339300       0.00132400       0.00283300
C        5.82114000       3.56097000       0.01156000      -0.01890400       0.02172900      -0.00085900
C        0.89092000       6.40755000       0.00907000       0.01067800      -0.00204800      -0.00086800
C        0.89106000       7.83068000       0.01235000      -0.00739400       0.00391400       0.00104600
C        4.58871000       4.27293000       0.00850000      -0.00861900       0.00276500      -0.02510700
C        4.58852000       5.69606000       0.01149000      -0.00295100      -0.01005100       0.00191900
C        9.51845000       0.00337000       0.01490000       0.00521900      -0.00607200       0.00049200
C        9.51855000       1.42644000       0.01438000      -0.00576100       0.00539200       0.00006000
C        8.28593000       2.13803000       0.01453000       0.00670700      -0.00433500       0.00072800
C        8.28613000       3.56115000       0.01464000      -0.00563800       0.00399500       0.00013300
C        7.05356000       4.27269000       0.01457000       0.00544900       0.00193900       0.00193200
C        7.05362000       5.69588000       0.01553000      -0.00445300       0.00100100       0.00091200
C        5.82112000       6.40755000       0.01489000      -0.00802700      -0.00198700       0.00085900
C        5.82102000       7.83073000       0.01579000       0.00413200      -0.00002600       0.00035800
C        7.05363000       8.54227000       0.01631000      -0.00459800       0.00279100       0.00191800
C       -5.27149000       9.96549000       0.01495000       0.00723700       0.00375700       0.00027800
C       -2.80638000       8.54234000       0.01558000       0.00303600       0.00262300      -0.00006500
C       -2.80627000       9.96553000       0.01362000      -0.01211700       0.00764600       0.00230200
C       -0.34149000       8.54239000       0.01378000       0.00589400      -0.00560700       0.00087600
C       -0.34138000       9.96550000       0.01354000      -0.00897400       0.00233100      -0.00045200
C        2.12343000       8.54232000       0.01336000       0.00596700      -0.00252700       0.00129300
C        2.12354000       9.96544000       0.01469000      -0.00462000       0.00307000      -0.00154600
C        4.58846000       8.54235000       0.01505000       0.00346700      -0.00347000       0.00160700
C        4.58853000       9.96550000       0.01517000      -0.00201300       0.00354600       0.00034100
C        3.04917000       2.68152000       3.24698000       0.00529200       0.00629700       0.04160300
O        2.89804000       1.51640000       3.31141000       0.08306000       0.63553500      -0.02670200
O        3.20045000       3.84697000       3.18753000      -0.08590000      -0.64910300       0.07141500
53
Lattice="12.325 0.0 0.0 -6.1625 10.673763102 0.0 0.0 0.0 30.0" Properties=species:S:1:pos:R:3:forces:R:3 energy=-486.64015247 free_energy=-486.64015247 pbc="T T T"
C       11.98348000       0.00342000       0.01417000       0.00590000      -0.00124200       0.00110400
C       -0.34154000       1.42665000       0.01100000      -0.00681300      -0.00733800       0.00157700
C        2.12355000       0.00315000       0.01249000       0.00006300       0.01458800      -0.00524000
C        2.12326000       1.42653000       0.00641000      -0.00651900      -0.02222700      -0.03438300
C       10.75099000       2.13819000       0.01213000       0.00217500      -0.00815400      -0.00001700
C       -1.57382000       3.56123000       0.01110000      -0.00786400       0.00700500      -0.00129600
C        0.89078000       2.13854000       0.00548000       0.01770000      -0.03137600       0.00697800
C        0.89099000       3.56147000       0.00181000       0.00151500       0.01389100       0.01442900
C        4.58864000       0.00346000       0.01135000      -0.00135000      -0.01645700       0.00300600
C        4.58894000       1.42623000       0.00646000      -0.00735500      -0.00194500       0.01497900
C        9.51854000       4.27281000       0.01369000       0.00611000      -0.00444900       0.00062200
C       -2.80632000       5.69591000       0.01434000      -0.00646700       0.00511700       0.00106700
C        2.12300000       4.27302000       0.00000000       0.01996300       0.01006900      -0.01057800
C        2.12335000       5.69594000       0.00581000       0.00379800      -0.00101200       0.00158300
C        7.05344000       0.00333000       0.01399000       0.00809600      -0.00519400       0.00027800
C        7.05353000       1.42635000       0.01368000       0.00272600       0.00088100      -0.00163000
C        8.28610000       6.40752000       0.01601000       0.00165100      -0.00010800      -0.00070800
C       -4.03885000       7.83070000       0.01636000      -0.00186400       0.00345700       0.00067300
C        3.35586000       6.40753000       0.01007000       0.00459000      -0.00659200       0.00589700
C        3.35599000       7.83072000       0.01320000      -0.00279700      -0.00588900      -0.00017800
C       -0.34146000       4.27290000       0.00723000      -0.00728000       0.00348600       0.00010900
C       -0.34138000       5.69591000       0.00946000      -0.00687400       0.00631600       0.00046900
C        3.35624000       2.13791000       0.00222000      -0.01409700       0.01837200      -0.02114400
C        3.35573000       3.56155000       0.00139000       0.01659900       0.00433100      -0.05668800
C       -1.57395000       6.40758000       0.01311000       0.00602300      -0.00309700      -0.00042500
C       -1.57385000       7.83068000       0.01438000      -0.00637000       0.00591000       0.00063600
C        5.82093000       2.13784000       0.01033000       0.01237300       0.00005300       0.00243000
C        5.82114000       3.56097000       0.01156000      -0.01789800       0.02099100      -0.00060200
C        0.89092000       6.40755000       0.00907000       0.01067800      -0.00224200      -0.00072000
C        0.89106000       7.83068000       0.01235000      -0.00757300       0.00364400       0.00104700
C        4.58871000       4.27293000       0.00850000      -0.00894600       0.00240700      -0.02323400
C        4.58852000       5.69606000       0.01149000      -0.00317200      -0.00860500       0.00222600
C        9.51845000       0.00337000       0.01490000       0.00532800      -0.00605200       0.00048600
C        9.51855000       1.42644000       0.01438000      -0.00572600       0.00541600       0.00004900
C        8.28593000       2.13803000       0.01453000       0.00652100      -0.00447400       0.00071300
C        8.28613000       3.56115000       0.01464000      -0.00544000       0.00392900       0.00011700
C        7.05356000       4.27269000       0.01457000       0.00581200       0.00207100       0.00188100
C        7.05362000       5.69588000       0.01553000      -0.00425300       0.00115500       0.00079700
C        5.82112000       6.40755000       0.01489000      -0.00789300      -0.00176400       0.00073700
C        5.82102000       7.83073000       0.01579000       0.00407800       0.00029800       0.00033900
C        7.05363000       8.54227000       0.01631000      -0.00448800       0.00248500       0.00194500
C       -5.27149000       9.96549000       0.01495000       0.00716500       0.00354000       0.00014000
C       -2.80638000       8.54234000       0.01558000       0.00302200       0.00288500      -0.00006100
C       -2.80627000       9.96553000       0.01362000      -0.01143400       0.00780700       0.00248700
C       -0.34149000       8.54239000       0.01378000       0.00593000      -0.00530800       0.00092300
C       -0.34138000       9.96550000       0.01354000      -0.00934200       0.00264900      -0.00036800
C        2.12343000       8.54232000       0.01336000       0.00596700      -0.00237000       0.00130300
C        2.12354000       9.96544000       0.01469000      -0.00484400       0.00307000      -0.00156500
C        4.58846000       8.54235000       0.01505000       0.00348600      -0.00350000       0.00157800
C        4.58853000       9.96550000       0.01517000      -0.00229300       0.00352200       0.00037000
C        3.04918000       2.68152000       3.24698000       0.00384800       0.00435400       0.04155100
O        2.96020000       1.51001000       3.31141000       0.04952900       0.63898000      -0.02656600
O        3.13829000       3.85337000       3.18753000      -0.05169200      -0.65328300       0.07087600
53
Lattice="12.325 0.0 0.0 -6.1625 10.673763102 0.0 0.0 0.0 30.0" Properties=species:S:1:pos:R:3:forces:R:3 energy=-486.62004331 free_energy=-486.62004331 pbc="T T T"
C       11.98348000       0.00342000       0.01417000       0.00523200       0.00260100       0.00316900
C       -0.34154000       1.42665000       0.01100000       0.01706900       0.00800200      -0.00044300
C        2.12355000       0.00315000       0.01249000      -0.00518600       0.01745400      -0.00563500
C        2.12326000       1.42653000       0.00641000      -0.01669500      -0.01527100      -0.06896900
C       10.75099000       2.13819000       0.01213000       0.00567300      -0.00623400       0.00249800
C       -1.57382000       3.56123000       0.01110000      -0.00651800       0.00168300       0.00094100
C        0.89078000       2.13854000       0.00548000      -0.00566500      -0.02201400      -0.03746200
C        0.89099000       3.56147000       0.00181000      -0.03178200      -0.02799000       0.00092000
C        4.58864000       0.00346000       0.01135000       0.00468000      -0.00859500       0.00024800
C        4.58894000       1.42623000       0.00646000       0.00677000       0.00439800       0.00489500
C        9.51854000       4.27281000       0.01369000       0.00658100      -0.00788400       0.00024400
C       -2.80632000       5.69591000       0.01434000      -0.00741900       0.00352500       0.00120100
C        2.12300000       4.27302000       0.00000000       0.02352400      -0.01154200       0.02161100
C        2.12335000       5.69594000       0.00581000       0.00313400       0.02595600       0.00595000
C        7.05344000       0.00333000       0.01399000       0.00766400      -0.00374300       0.00081100
C        7.05353000       1.42635000       0.01368000      -0.00964800       0.00857600      -0.00185600
C        8.28610000       6.40752000       0.01601000       0.00042900      -0.00111800      -0.00075100
C       -4.03885000       7.83070000       0.01636000      -0.00172000       0.00126300       0.00022000
C        3.35586000       6.40753000       0.01007000       0.00430100      -0.00035600       0.00298700
C        3.35599000       7.83072000       0.01320000      -0.00415700       0.00034300       0.00019600
C       -0.34146000       4.27290000       0.00723000       0.00143800      -0.00588700      -0.00037700
C       -0.34138000       5.69591000       0.00946000      -0.01101800       0.00357300      -0.00031100
C        3.35624000       2.13791000       0.00222000      -0.02714000      -0.01375200      -0.06252000
C        3.35573000       3.56155000       0.00139000       0.02196300       0.02614100      -0.08779600
C       -1.57395000       6.40758000       0.01311000       0.00777100      -0.00373900      -0.00000700
C       -1.57385000       7.83068000       0.01438000      -0.00407300       0.00464500       0.00023300
C        5.82093000       2.13784000       0.01033000       0.01373000       0.01088100      -0.00186700
C        5.82114000       3.56097000       0.01156000      -0.02278300       0.01481600      -0.00877200
C        0.89092000       6.40755000       0.00907000       0.00491800       0.00133200      -0.00153900
C        0.89106000       7.83068000       0.01235000      -0.00487700       0.00513700       0.00051500
C        4.58871000       4.27293000       0.00850000       0.00522600       0.00292800      -0.04909500
C        4.58852000       5.69606000       0.01149000       0.00365100      -0.02632600      -0.00239500
C        9.51845000       0.00337000       0.01490000       0.00245500      -0.00548900       0.00064600
C        9.51855000       1.42644000       0.01438000      -0.00423200       0.00994500       0.00000900
C        8.28593000       2.13803000       0.01453000       0.00587400      -0.00312700       0.00189400
C        8.28613000       3.56115000       0.01464000      -0.00756900       0.00369700       0.00136300
C        7.05356000       4.27269000       0.01457000      -0.00675800      -0.00493100       0.00195400
C        7.05362000       5.69588000       0.01553000      -0.00646600      -0.00235400       0.00189300
C        5.82112000       6.40755000       0.01489000      -0.00179900       0.00095200       0.00271000
C        5.82102000       7.83073000       0.01579000       0.00304200      -0.00362900       0.00006000
C        7.05363000       8.54227000       0.01631000      -0.00534600       0.00605100       0.00114500
C       -5.27149000       9.96549000       0.01495000      -0.00173100       0.00143400       0.00302400
C       -2.80638000       8.54234000       0.01558000       0.00223800      -0.00324300       0.00043100
C       -2.80627000       9.96553000       0.01362000      -0.01455000       0.00022500      -0.00041400
C       -0.34149000       8.54239000       0.01378000       0.00427600      -0.00406500       0.00033100
C       -0.34138000       9.96550000       0.01354000       0.00029800      -0.00088700       0.00065900
C        2.12343000       8.54232000       0.01336000       0.00605600      -0.00309800       0.00102000
C        2.12354000       9.96544000       0.01469000      -0.00422400       0.00523300      -0.00147700
C        4.58846000       8.54235000       0.01505000       0.00403300      -0.00234500       0.00131800
C        4.58853000       9.96550000       0.01517000       0.00337600       0.00408100       0.00035700
C        3.04910000       2.68162000       3.04155000       0.02682600       0.00951500       0.06897400
O        1.94983000       2.26696000       3.10597000       0.60870100       0.24115000       0.01665000
O        4.14874000       3.09631000       2.98210000      -0.59957400      -0.23791300       0.18060800
53
Lattice="12.325 0.0 0.0 -6.1625 10.673763102 0.0 0.0 0.0 30.0" Properties=species:S:1:pos:R:3:forces:R:3 energy=-486.63976373 free_energy=-486.63976373 pbc="T T T"
C       11.98348000       0.00342000       0.01417000       0.00693100      -0.00059200       0.00250700
C       -0.34154000       1.42665000       0.01100000      -0.00263800      -0.00552900       0.00222400
C        2.12355000       0.00315000       0.01249000      -0.00230500       0.02406900      -0.01134700
C        2.12326000       1.42653000       0.00641000      -0.01017300      -0.02410500      -0.06154700
C       10.75099000       2.13819000       0.01213000       0.00342900      -0.00921000       0.00012100
C       -1.57382000       3.56123000       0.01110000      -0.00873400       0.00594800      -0.00118600
C        0.89078000       2.13854000       0.00548000       0.02406600      -0.04033200      -0.00225100
C        0.89099000       3.56147000       0.00181000      -0.00653800       0.00217400       0.01850500
C        4.58864000       0.00346000       0.01135000      -0.00249900      -0.02031700       0.00460500
C        4.58894000       1.42623000       0.00646000      -0.01248800       0.00375200       0.01793700
C        9.51854000       4.27281000       0.01369000       0.00603900      -0.00472000       0.00055300
C       -2.80632000       5.69591000       0.01434000      -0.00587800       0.00516100       0.00106900
C        2.12300000       4.27302000       0.00000000       0.01937700       0.00793800       0.01053400
C        2.12335000       5.69594000       0.00581000       0.00447500       0.00891900       0.00377200
C        7.05344000       0.00333000       0.01399000       0.00899200      -0.00509300      -0.00002000
C        7.05353000       1.42635000       0.01368000       0.00264500       0.00174000      -0.00174800
C        8.28610000       6.40752000       0.01601000       0.00084300      -0.00011700      -0.00075500
C       -4.03885000       7.83070000       0.01636000      -0.00218300       0.00239400       0.00079200
C        3.35586000       6.40753000       0.01007000       0.00628500      -0.00515000       0.00490400
C        3.35599000       7.83072000       0.01320000      -0.00316000      -0.00474100      -0.00013700
C       -0.34146000       4.27290000       0.00723000      -0.00899000       0.00407200      -0.00028800
C       -0.34138000       5.69591000       0.00946000      -0.00791900       0.00624100      -0.00029600
C        3.35624000       2.13791000       0.00222000      -0.02138900       0.00770300      -0.03320800
C        3.35573000       3.56155000       0.00139000       0.02178400      -0.00329900      -0.03469600
C       -1.57395000       6.40758000       0.01311000       0.00471500      -0.00364500      -0.00025900
C       -1.57385000       7.83068000       0.01438000      -0.00581300       0.00594600       0.00051100
C        5.82093000       2.13784000       0.01033000       0.01454500       0.00367800       0.00288000
C        5.82114000       3.56097000       0.01156000      -0.01875200       0.02220900      -0.00145700
C        0.89092000       6.40755000       0.00907000       0.00925800      -0.00096900      -0.00151000
C        0.89106000       7.83068000       0.01235000      -0.00632300       0.00521800       0.00098800
C        4.58871000       4.27293000       0.00850000      -0.00092600       0.00703900      -0.02250400
C        4.58852000       5.69606000       0.01149000      -0.00076100      -0.01151100       0.00075900
C        9.51845000       0.00337000       0.01490000       0.00457200      -0.00634200       0.00050000
C        9.51855000       1.42644000       0.01438000      -0.00572800       0.00623800       0.00009600
C        8.28593000       2.13803000       0.01453000       0.00705600      -0.00396900       0.00084000
C        8.28613000       3.56115000       0.01464000      -0.00625500       0.00438800       0.00014100
C        7.05356000       4.27269000       0.01457000       0.00472400       0.00209400       0.00186100
C        7.05362000       5.69588000       0.01553000      -0.00503000       0.00050500       0.00113300
C        5.82112000       6.40755000       0.01489000      -0.00721800      -0.00218800       0.00104500
C        5.82102000       7.83073000       0.01579000       0.00415500      -0.00084600       0.00036200
C        7.05363000       8.54227000       0.01631000      -0.00523800       0.00399400       0.00199800
C       -5.27149000       9.96549000       0.01495000       0.00862800       0.00566300       0.00110400
C       -2.80638000       8.54234000       0.01558000       0.00326500       0.00316200      -0.00004100
C       -2.80627000       9.96553000       0.01362000      -0.01437400       0.00822300       0.00263300
C       -0.34149000       8.54239000       0.01378000       0.00560600      -0.00654600       0.00081500
C       -0.34138000       9.96550000       0.01354000      -0.00895800       0.00213800      -0.00072600
C        2.12343000       8.54232000       0.01336000       0.00574900      -0.00344900       0.00118800
C        2.12354000       9.96544000       0.01469000      -0.00413500       0.00338000      -0.00150000
C        4.58846000       8.54235000       0.01505000       0.00325600      -0.00351600       0.00163900
C        4.58853000       9.96550000       0.01517000      -0.00058700       0.00362500       0.00019100
C        3.04929000       2.68173000       3.24698000       0.00061100      -0.01072300       0.04110100
O        3.39316000       3.80516000       3.31141000      -0.18658000      -0.61577600      -0.02819500
O        2.70521000       1.55800000       3.18753000       0.19056600       0.62507400       0.07436300
53
Lattice="12.325 0.0 0.0 -6.1625 10.673763102 0.0 0.0 0.0 30.0" Properties=species:S:1:pos:R:3:forces:R:3 energy=-486.64394913 free_energy=-486.64394913 pbc="T T T"
C       11.98348000       0.00342000       0.01417000       0.00753900       0.00078700       0.00353200
C       -0.34154000       1.42665000       0.01100000       0.00676600       0.00042700       0.00166700
C        2.12355000       0.00315000       0.01249000      -0.00571900       0.02728500      -0.01045000
C        2.12326000       1.42653000       0.00641000      -0.01428800      -0.02118800      -0.06620600
C       10.75099000       2.13819000       0.01213000       0.00521500      -0.00928900       0.00078900
C       -1.57382000       3.56123000       0.01110000      -0.00888800       0.00384500      -0.00045000
C        0.89078000       2.13854000       0.00548000       0.01702700      -0.03750600      -0.01540000
C        0.89099000       3.56147000       0.00181000      -0.01685700      -0.01588700       0.01665000
C        4.58864000       0.00346000       0.01135000       0.00028700      -0.02447400       0.00375000
C        4.58894000       1.42623000       0.00646000      -0.00991200       0.00921000       0.02633200
C        9.51854000       4.27281000       0.01369000       0.00628300      -0.00567700       0.00041900