53
Lattice="12.325 0.0 0.0 -6.1625 10.673763102 0.0 0.0 0.0 30.0" Properties=species:S:1:pos:R:3:forces:R:3 energy=-393.79252044 free_energy=-393.79252044 pbc="T T T"
C       11.98348000       0.00342000       0.01417000       0.00177100      -0.00033000      -0.00019500
C       -0.34154000       1.42665000       0.01100000       0.00043100       0.00220700       0.00083400
C        2.12355000       0.00315000       0.01249000       0.00123000      -0.00471900       0.00438700
C        2.12326000       1.42653000       0.00641000      -0.00010000       0.00376800       0.00135400
C       10.75099000       2.13819000       0.01213000       0.00062600      -0.00391300       0.00240700
C       -1.57382000       3.56123000       0.01110000      -0.00482100       0.00662100       0.00083800
C        0.89078000       2.13854000       0.00548000      -0.00310900       0.00246200      -0.00124500
C        0.89099000       3.56147000       0.00181000      -0.00555600       0.00722700      -0.00996100
C        4.58864000       0.00346000       0.01135000       0.00696400       0.00277500      -0.00052500
C        4.58894000       1.42623000       0.00646000      -0.00332000       0.00177800      -0.01321000
C        9.51854000       4.27281000       0.01369000       0.00747100      -0.00692400       0.00049500
C       -2.80632000       5.69591000       0.01434000      -0.00817300       0.00454400       0.00130500
C        2.12300000       4.27302000       0.00000000      -0.00198700       0.00502700      -0.01812900
C        2.12335000       5.69594000       0.00581000      -0.00410700      -0.00871000       0.00032800
C        7.05344000       0.00333000       0.01399000       0.00556700      -0.00247500       0.00230300
C        7.05353000       1.42635000       0.01368000      -0.00473600       0.00483200       0.00010800
C        8.28610000       6.40752000       0.01601000       0.00371000      -0.00223100      -0.00021300
C       -4.03885000       7.83070000       0.01636000      -0.00272700       0.00289300       0.00035800
C        3.35586000       6.40753000       0.01007000       0.00227100       0.00081100       0.00233200
C        3.35599000       7.83072000       0.01320000      -0.00297200       0.00005300       0.00026700
C       -0.34146000       4.27290000       0.00723000       0.01024400      -0.00728200      -0.00014300
C       -0.34138000       5.69591000       0.00946000      -0.00662700       0.00300700       0.00305100
C        3.35624000       2.13791000       0.00222000       0.00716700      -0.00173600      -0.01887000
C        3.35573000       3.56155000       0.00139000      -0.00381600       0.00076900      -0.01230900
C       -1.57395000       6.40758000       0.01311000       0.00970500      -0.00380300      -0.00055900
C       -1.57385000       7.83068000       0.01438000      -0.00473000       0.00425000       0.00064900
C        5.82093000       2.13784000       0.01033000       0.00163800      -0.00693600      -0.00252900
C        5.82114000       3.56097000       0.01156000      -0.00056500      -0.00011800       0.00359900
C        0.89092000       6.40755000       0.00907000       0.00375800      -0.00025000       0.00236800
C        0.89106000       7.83068000       0.01235000      -0.00851600       0.00010900       0.00055400
C        4.58871000       4.27293000       0.00850000      -0.00021300      -0.00453500       0.00424000
C        4.58852000       5.69606000       0.01149000       0.00131200       0.00793100       0.00176100
C        9.51845000       0.00337000       0.01490000       0.00561300      -0.00554100       0.00067500
C        9.51855000       1.42644000       0.01438000      -0.00443000       0.00877100      -0.00015600
C        8.28593000       2.13803000       0.01453000       0.00334400      -0.00536900       0.00149800
C        8.28613000       3.56115000       0.01464000      -0.00464100       0.00153200       0.00075500
C        7.05356000       4.27269000       0.01457000       0.00357600      -0.00061400       0.00136800
C        7.05362000       5.69588000       0.01553000      -0.00263800       0.00063100       0.00018800
C        5.82112000       6.40755000       0.01489000      -0.00088100       0.00156100       0.00018200
C        5.82102000       7.83073000       0.01579000       0.00075200       0.00178000       0.00001800
C        7.05363000       8.54227000       0.01631000      -0.00257700      -0.00092800       0.00139600
C       -5.27149000       9.96549000       0.01495000      -0.00192900      -0.00300100      -0.00081900
C       -2.80638000       8.54234000       0.01558000       0.00272400      -0.00140300       0.00003900
C       -2.80627000       9.96553000       0.01362000      -0.00245100       0.00012300       0.00217100
C       -0.34149000       8.54239000       0.01378000       0.00606800      -0.00152800       0.00086900
C       -0.34138000       9.96550000       0.01354000      -0.00665400       0.00271400       0.00224200
C        2.12343000       8.54232000       0.01336000       0.00629600      -0.00142300       0.00117400
C        2.12354000       9.96544000       0.01469000      -0.00790100       0.00421500      -0.00182100
C        4.58846000       8.54235000       0.01505000       0.00520200      -0.00425400       0.00131700
C        4.58853000       9.96550000       0.01517000      -0.00321600       0.00364500       0.00090700
C        3.04930000       2.68154000       3.24698000      -0.00167900       0.00015000       0.00091800
O        4.02070000       2.02068000       3.31141000      -0.44310700       0.30724000      -0.02023800
O        2.07767000       3.34267000       3.18753000       0.45073900      -0.31540400       0.05166600
53
Lattice="12.325 0.0 0.0 -6.1625 10.673763102 0.0 0.0 0.0 30.0" Properties=species:S:1:pos:R:3:forces:R:3 energy=-393.77977566 free_energy=-393.77977566 pbc="T T T"
C       11.98348000       0.00342000       0.01417000       0.00546300      -0.00176600       0.00195600
C       -0.34154000       1.42665000       0.01100000      -0.00917600      -0.00818300       0.00224700
C        2.12355000       0.00315000       0.01249000      -0.00095900       0.01797500      -0.00543400
C        2.12326000       1.42653000       0.00641000      -0.00343500      -0.02408200      -0.03939000
C       10.75099000       2.13819000       0.01213000       0.00212100      -0.00843700      -0.00020000
C       -1.57382000       3.56123000       0.01110000      -0.00856000       0.00670100      -0.00165400
C        0.89078000       2.13854000       0.00548000       0.02016400      -0.03581500       0.00937800
C        0.89099000       3.56147000       0.00181000       0.00214700       0.01503600       0.01877800
C        4.58864000       0.00346000       0.01135000      -0.00097500      -0.01865700       0.00433700
C        4.58894000       1.42623000       0.00646000      -0.01030700      -0.00148200       0.01904300
C        9.51854000       4.27281000       0.01369000       0.00595200      -0.00421000       0.00064000
C       -2.80632000       5.69591000       0.01434000      -0.00633500       0.00508000       0.00121000
C        2.12300000       4.27302000       0.00000000       0.02736300       0.00800700      -0.01089300
C        2.12335000       5.69594000       0.00581000       0.00385900      -0.00081800       0.00322300
C        7.05344000       0.00333000       0.01399000       0.00834600      -0.00532200       0.00019100
C        7.05353000       1.42635000       0.01368000       0.00472800      -0.00003000      -0.00172200
C        8.28610000       6.40752000       0.01601000       0.00140700       0.00000600      -0.00058600
C       -4.03885000       7.83070000       0.01636000      -0.00206000       0.00339500       0.00097700
C        3.35586000       6.40753000       0.01007000       0.00522700      -0.00577900       0.00766300
C        3.35599000       7.83072000       0.01320000      -0.00287600      -0.00538800      -0.00006200
C       -0.34146000       4.27290000       0.00723000      -0.01038100       0.00499400       0.00032100
C       -0.34138000       5.69591000       0.00946000      -0.00729200       0.00677900       0.00039100
C        3.35624000       2.13791000       0.00222000      -0.01952700       0.02282800      -0.02073500
C        3.35573000       3.56155000       0.00139000       0.01718600       0.00443300      -0.06726900
C       -1.57395000       6.40758000       0.01311000       0.00549300      -0.00306300      -0.00046800
C       -1.57385000       7.83068000       0.01438000      -0.00625300       0.00606500       0.00074200
C        5.82093000       2.13784000       0.01033000       0.01481600       0.00014100       0.00584000
C        5.82114000       3.56097000       0.01156000      -0.01872700       0.02429800       0.00139600
C        0.89092000       6.40755000       0.00907000       0.01029300      -0.00133500      -0.00049900
C        0.89106000       7.83068000       0.01235000      -0.00732300       0.00430400       0.00104000
C        4.58871000       4.27293000       0.00850000      -0.01414200       0.00193100      -0.02569500
C        4.58852000       5.69606000       0.01149000      -0.00232800      -0.01067900       0.00361900
C        9.51845000       0.00337000       0.01490000       0.00518700      -0.00595500       0.00067800
C        9.51855000       1.42644000       0.01438000      -0.00586300       0.00507400       0.00006100
C        8.28593000       2.13803000       0.01453000       0.00686700      -0.00426700       0.00064300
C        8.28613000       3.56115000       0.01464000      -0.00561000       0.00409200       0.00013100
C        7.05356000       4.27269000       0.01457000       0.00723600       0.00253100       0.00232200
C        7.05362000       5.69588000       0.01553000      -0.00433700       0.00129300       0.00112800
C        5.82112000       6.40755000       0.01489000      -0.00778500      -0.00125100       0.00133200
C        5.82102000       7.83073000       0.01579000       0.00432300       0.00001000       0.00058500
C        7.05363000       8.54227000       0.01631000      -0.00475400       0.00244800       0.00230100
C       -5.27149000       9.96549000       0.01495000       0.00758600       0.00304000       0.00142400
C       -2.80638000       8.54234000       0.01558000       0.00318200       0.00202600       0.00036600
C       -2.80627000       9.96553000       0.01362000      -0.01267800       0.00701600       0.00364100
C       -0.34149000       8.54239000       0.01378000       0.00573100      -0.00584500       0.00096800
C       -0.34138000       9.96550000       0.01354000      -0.00817700       0.00162400      -0.00021400
C        2.12343000       8.54232000       0.01336000       0.00585300      -0.00257700       0.00137100
C        2.12354000       9.96544000       0.01469000      -0.00440400       0.00297500      -0.00149600
C        4.58846000       8.54235000       0.01505000       0.00352200      -0.00342200       0.00162900
C        4.58853000       9.96550000       0.01517000      -0.00216300       0.00338900       0.00044800
C        3.04917000       2.68152000       3.24698000       0.00564100       0.00148500       0.03765000
O        2.89804000       1.51640000       3.31141000       0.07067100       0.54569600      -0.02676200
O        3.20045000       3.84697000       3.18753000      -0.07393800      -0.55630900       0.06341200
53
Lattice="12.325 0.0 0.0 -6.1625 10.673763102 0.0 0.0 0.0 30.0" Properties=species:S:1:pos:R:3:forces:R:3 energy=-393.77990553 free_energy=-393.77990553 pbc="T T T"
C       11.98348000       0.00342000       0.01417000       0.00526100      -0.00186900       0.00167000
C       -0.34154000       1.42665000       0.01100000      -0.00989600      -0.00839200       0.00214900
C        2.12355000       0.00315000       0.01249000      -0.00024500       0.01672900      -0.00473500
C        2.12326000       1.42653000       0.00641000      -0.00233100      -0.02348300      -0.03664000
C       10.75099000       2.13819000       0.01213000       0.00187400      -0.00823500      -0.00021000
C       -1.57382000       3.56123000       0.01110000      -0.00839700       0.00694400      -0.00164900
C        0.89078000       2.13854000       0.00548000       0.01951600      -0.03415200       0.01060300
C        0.89099000       3.56147000       0.00181000       0.00348200       0.01716200       0.01768800
C        4.58864000       0.00346000       0.01135000      -0.00090100      -0.01722700       0.00403700
C        4.58894000       1.42623000       0.00646000      -0.00999600      -0.00234900       0.01669400
C        9.51854000       4.27281000       0.01369000       0.00598900      -0.00421300       0.00065100
C       -2.80632000       5.69591000       0.01434000      -0.00643600       0.00512700       0.00121000
C        2.12300000       4.27302000       0.00000000       0.02555100       0.00912000      -0.01398300
C        2.12335000       5.69594000       0.00581000       0.00350700      -0.00276000       0.00258600
C        7.05344000       0.00333000       0.01399000       0.00814400      -0.00526100       0.00033000
C        7.05353000       1.42635000       0.01368000       0.00483100      -0.00023400      -0.00159500
C        8.28610000       6.40752000       0.01601000       0.00166400      -0.00006800      -0.00056100
C       -4.03885000       7.83070000       0.01636000      -0.00201200       0.00353200       0.00094700
C        3.35586000       6.40753000       0.01007000       0.00466900      -0.00582600       0.00758900
C        3.35599000       7.83072000       0.01320000      -0.00278500      -0.00541300      -0.00003600
C       -0.34146000       4.27290000       0.00723000      -0.00969900       0.00479300       0.00039800
C       -0.34138000       5.69591000       0.00946000      -0.00702500       0.00678000       0.00062900
C        3.35624000       2.13791000       0.00222000      -0.01758200       0.02266700      -0.02126400
C        3.35573000       3.56155000       0.00139000       0.01540900       0.00397800      -0.06607900
C       -1.57395000       6.40758000       0.01311000       0.00572700      -0.00302600      -0.00050600
C       -1.57385000       7.83068000       0.01438000      -0.00623100       0.00597800       0.00078500
C        5.82093000       2.13784000       0.01033000       0.01355200      -0.00131400       0.00537100
C        5.82114000       3.56097000       0.01156000      -0.01750400       0.02347100       0.00176600
C        0.89092000       6.40755000       0.00907000       0.01034900      -0.00160200      -0.00024300
C        0.89106000       7.83068000       0.01235000      -0.00748900       0.00397600       0.00105800
C        4.58871000       4.27293000       0.00850000      -0.01440100       0.00161200      -0.02332600
C        4.58852000       5.69606000       0.01149000      -0.00258000      -0.00897800       0.00397400
C        9.51845000       0.00337000       0.01490000       0.00529800      -0.00599200       0.00067100
C        9.51855000       1.42644000       0.01438000      -0.00584500       0.00506100       0.00004500
C        8.28593000       2.13803000       0.01453000       0.00666000      -0.00444800       0.00062900
C        8.28613000       3.56115000       0.01464000      -0.00542400       0.00400300       0.00011700
C        7.05356000       4.27269000       0.01457000       0.00761300       0.00265900       0.00222900
C        7.05362000       5.69588000       0.01553000      -0.00416500       0.00139100       0.00097500
C        5.82112000       6.40755000       0.01489000      -0.00767600      -0.00109700       0.00117900
C        5.82102000       7.83073000       0.01579000       0.00421500       0.00028400       0.00056700
C        7.05363000       8.54227000       0.01631000      -0.00468200       0.00209800       0.00230100
C       -5.27149000       9.96549000       0.01495000       0.00745200       0.00271600       0.00119900
C       -2.80638000       8.54234000       0.01558000       0.00311400       0.00224100       0.00035600
C       -2.80627000       9.96553000       0.01362000      -0.01193400       0.00716800       0.00377100
C       -0.34149000       8.54239000       0.01378000       0.00580000      -0.00562600       0.00100700
C       -0.34138000       9.96550000       0.01354000      -0.00855900       0.00192500      -0.00009100
C        2.12343000       8.54232000       0.01336000       0.00586300      -0.00248800       0.00139000
C        2.12354000       9.96544000       0.01469000      -0.00462000       0.00292200      -0.00152600
C        4.58846000       8.54235000       0.01505000       0.00352900      -0.00354100       0.00161300
C        4.58853000       9.96550000       0.01517000      -0.00249200       0.00331600       0.00048200
C        3.04918000       2.68152000       3.24698000       0.00440100       0.00121800       0.03759500
O        2.96020000       1.51001000       3.31141000       0.04210300       0.54856000      -0.02659900
O        3.13829000       3.85337000       3.18753000      -0.04466500      -0.55983700       0.06278300
53
Lattice="12.325 0.0 0.0 -6.1625 10.673763102 0.0 0.0 0.0 30.0" Properties=species:S:1:pos:R:3:forces:R:3 energy=-393.76000901 free_energy=-393.76000901 pbc="T T T"
C       11.98348000       0.00342000       0.01417000       0.00451900       0.00173500       0.00464200
C       -0.34154000       1.42665000       0.01100000       0.01834200       0.00948800       0.00095300
C        2.12355000       0.00315000       0.01249000      -0.00648600       0.02079400      -0.00332600
C        2.12326000       1.42653000       0.00641000      -0.01633900      -0.01174100      -0.08142600
C       10.75099000       2.13819000       0.01213000       0.00489200      -0.00607900       0.00341900
C       -1.57382000       3.56123000       0.01110000      -0.00746700       0.00122700       0.00142800
C        0.89078000       2.13854000       0.00548000      -0.00251100      -0.02338400      -0.04303100
C        0.89099000       3.56147000       0.00181000      -0.03358800      -0.03237500       0.00058500
C        4.58864000       0.00346000       0.01135000       0.00596900      -0.00894100       0.00258600
C        4.58894000       1.42623000       0.00646000       0.00575200       0.00756000       0.00351300
C        9.51854000       4.27281000       0.01369000       0.00639500      -0.00782500       0.00022000
C       -2.80632000       5.69591000       0.01434000      -0.00748500       0.00343300       0.00126500
C        2.12300000       4.27302000       0.00000000       0.02673300      -0.01490800       0.02371400
C        2.12335000       5.69594000       0.00581000       0.00230000       0.02919800       0.00783500
C        7.05344000       0.00333000       0.01399000       0.00754300      -0.00437700       0.00110900
C        7.05353000       1.42635000       0.01368000      -0.00929600       0.00865000      -0.00118200
C        8.28610000       6.40752000       0.01601000       0.00039800      -0.00117100      -0.00062000
C       -4.03885000       7.83070000       0.01636000      -0.00193200       0.00130600       0.00019900
C        3.35586000       6.40753000       0.01007000       0.00452100       0.00193200       0.00430600
C        3.35599000       7.83072000       0.01320000      -0.00421500       0.00101100       0.00013900
C       -0.34146000       4.27290000       0.00723000       0.00084200      -0.00567700       0.00013100
C       -0.34138000       5.69591000       0.00946000      -0.01132100       0.00450900      -0.00041000
C        3.35624000       2.13791000       0.00222000      -0.03219800      -0.01052800      -0.07243400
C        3.35573000       3.56155000       0.00139000       0.02610100       0.02235600      -0.10144200
C       -1.57395000       6.40758000       0.01311000       0.00752000      -0.00372300      -0.00005600
C       -1.57385000       7.83068000       0.01438000      -0.00383400       0.00472600       0.00028600
C        5.82093000       2.13784000       0.01033000       0.01338000       0.01186000      -0.00079800
C        5.82114000       3.56097000       0.01156000      -0.02548400       0.01584600      -0.00853900
C        0.89092000       6.40755000       0.00907000       0.00364700       0.00249300      -0.00177100
C        0.89106000       7.83068000       0.01235000      -0.00450200       0.00540200       0.00030600
C        4.58871000       4.27293000       0.00850000       0.00214700      -0.00037800      -0.05637900
C        4.58852000       5.69606000       0.01149000       0.00491300      -0.02885400      -0.00058000
C        9.51845000       0.00337000       0.01490000       0.00237200      -0.00541600       0.00073300
C        9.51855000       1.42644000       0.01438000      -0.00445700       0.00992400       0.00003900
C        8.28593000       2.13803000       0.01453000       0.00650800      -0.00269900       0.00220900
C        8.28613000       3.56115000       0.01464000      -0.00712200       0.00336200       0.00177700
C        7.05356000       4.27269000       0.01457000      -0.00688300      -0.00550600       0.00313500
C        7.05362000       5.69588000       0.01553000      -0.00640900      -0.00173000       0.00266800
C        5.82112000       6.40755000       0.01489000      -0.00083200       0.00219100       0.00365700
C        5.82102000       7.83073000       0.01579000       0.00313600      -0.00386600       0.00021800
C        7.05363000       8.54227000       0.01631000      -0.00555500       0.00580800       0.00127000
C       -5.27149000       9.96549000       0.01495000      -0.00277900      -0.00015900       0.00483300
C       -2.80638000       8.54234000       0.01558000       0.00233900      -0.00424600       0.00049300
C       -2.80627000       9.96553000       0.01362000      -0.01495200      -0.00264600       0.00159500
C       -0.34149000       8.54239000       0.01378000       0.00398700      -0.00418500       0.00023100
C       -0.34138000       9.96550000       0.01354000       0.00244000      -0.00223200       0.00084500
C        2.12343000       8.54232000       0.01336000       0.00585400      -0.00321100       0.00107600
C        2.12354000       9.96544000       0.01469000      -0.00398600       0.00518000      -0.00143600
C        4.58846000       8.54235000       0.01505000       0.00410300      -0.00233800       0.00125000
C        4.58853000       9.96550000       0.01517000       0.00323300       0.00380300       0.00048600
C        3.04910000       2.68162000       3.04155000       0.02988800       0.01073900       0.08458400
O        1.94983000       2.26696000       3.10597000       0.52133300       0.20846400       0.02059800
O        4.14874000       3.09631000       2.98210000      -0.51147300      -0.20480400       0.18509600
53
Lattice="12.325 0.0 0.0 -6.1625 10.673763102 0.0 0.0 0.0 30.0" Properties=species:S:1:pos:R:3:forces:R:3 energy=-393.77964884 free_energy=-393.77964884 pbc="T T T"
C       11.98348000       0.00342000       0.01417000       0.00634100      -0.00121800       0.00363100
C       -0.34154000       1.42665000       0.01100000      -0.00494600      -0.00604300       0.00325100
C        2.12355000       0.00315000       0.01249000      -0.00276600       0.02863600      -0.01095500
C        2.12326000       1.42653000       0.00641000      -0.00656100      -0.02507700      -0.06947600
C       10.75099000       2.13819000       0.01213000       0.00303400      -0.00931800       0.00007500
C       -1.57382000       3.56123000       0.01110000      -0.00923000       0.00580800      -0.00157900
C        0.89078000       2.13854000       0.00548000       0.02820000      -0.04477300       0.00007300
C        0.89099000       3.56147000       0.00181000      -0.00655100       0.00351000       0.02239800
C        4.58864000       0.00346000       0.01135000      -0.00203000      -0.02188600       0.00630700
C        4.58894000       1.42623000       0.00646000      -0.01568100       0.00420400       0.02092500
C        9.51854000       4.27281000       0.01369000       0.00590000      -0.00446200       0.00056300
C       -2.80632000       5.69591000       0.01434000      -0.00581300       0.00522000       0.00122100
C        2.12300000       4.27302000       0.00000000       0.02403100       0.00746600       0.01090200
C        2.12335000       5.69594000       0.00581000       0.00398500       0.00938500       0.00449300
C        7.05344000       0.00333000       0.01399000       0.00906200      -0.00514500      -0.00008000
C        7.05353000       1.42635000       0.01368000       0.00465100       0.00072000      -0.00176300
C        8.28610000       6.40752000       0.01601000       0.00083700       0.00000200      -0.00062800
C       -4.03885000       7.83070000       0.01636000      -0.00237400       0.00245400       0.00106600
C        3.35586000       6.40753000       0.01007000       0.00656600      -0.00413100       0.00617100
C        3.35599000       7.83072000       0.01320000      -0.00318500      -0.00425900      -0.00006100
C       -0.34146000       4.27290000       0.00723000      -0.01161700       0.00564400      -0.00024900
C       -0.34138000       5.69591000       0.00946000      -0.00808200       0.00660300      -0.00048000
C        3.35624000       2.13791000       0.00222000      -0.02717100       0.00985400      -0.03648100
C        3.35573000       3.56155000       0.00139000       0.02274100      -0.00542800      -0.03887100
C       -1.57395000       6.40758000       0.01311000       0.00433400      -0.00357600      -0.00029700
C       -1.57385000       7.83068000       0.01438000      -0.00572800       0.00611300       0.00067000
C        5.82093000       2.13784000       0.01033000       0.01633700       0.00290400       0.00580800
C        5.82114000       3.56097000       0.01156000      -0.01880400       0.02479000       0.00028700
C        0.89092000       6.40755000       0.00907000       0.00877800      -0.00024000      -0.00142700
C        0.89106000       7.83068000       0.01235000      -0.00616700       0.00556500       0.00094200
C        4.58871000       4.27293000       0.00850000      -0.00502300       0.00688000      -0.02319700
C        4.58852000       5.69606000       0.01149000       0.00005100      -0.01234800       0.00194300
C        9.51845000       0.00337000       0.01490000       0.00455100      -0.00627800       0.00066700
C        9.51855000       1.42644000       0.01438000      -0.00579800       0.00598700       0.00009900
C        8.28593000       2.13803000       0.01453000       0.00723400      -0.00383700       0.00078300
C        8.28613000       3.56115000       0.01464000      -0.00624100       0.00446900       0.00015600
C        7.05356000       4.27269000       0.01457000       0.00638300       0.00264800       0.00230500
C        7.05362000       5.69588000       0.01553000      -0.00497300       0.00074000       0.00145300
C        5.82112000       6.40755000       0.01489000      -0.00699200      -0.00153700       0.00158700
C        5.82102000       7.83073000       0.01579000       0.00435700      -0.00082900       0.00059900
C        7.05363000       8.54227000       0.01631000      -0.00546300       0.00357900       0.00241200
C       -5.27149000       9.96549000       0.01495000       0.00931400       0.00514300       0.00267400
C       -2.80638000       8.54234000       0.01558000       0.00345900       0.00251100       0.00041300
C       -2.80627000       9.96553000       0.01362000      -0.01531500       0.00766300       0.00442000
C       -0.34149000       8.54239000       0.01378000       0.00541600      -0.00684200       0.00084100
C       -0.34138000       9.96550000       0.01354000      -0.00808600       0.00139600      -0.00059800
C        2.12343000       8.54232000       0.01336000       0.00564500      -0.00361400       0.00128800
C        2.12354000       9.96544000       0.01469000      -0.00389800       0.00333600      -0.00144100
C        4.58846000       8.54235000       0.01505000       0.00334000      -0.00348600       0.00166900
C        4.58853000       9.96550000       0.01517000      -0.00076100       0.00344600       0.00028500
C        3.04929000       2.68173000       3.24698000       0.00218500      -0.00926500       0.03683200
O        3.39316000       3.80516000       3.31141000      -0.15962700      -0.52871800      -0.02871800
O        2.70521000       1.55800000       3.18753000       0.16215200       0.53563500       0.06709000
53
Lattice="12.325 0.0 0.0 -6.1625 10.673763102 0.0 0.0 0.0 30.0" Properties=species:S:1:pos:R:3:forces:R:3 energy=-393.78441872 free_energy=-393.78441872 pbc="T T T"
C       11.98348000       0.00342000       0.01417000       0.00706300       0.00011000       0.00507000
C       -0.34154000       1.42665000       0.01100000       0.00625900       0.00098900       0.00295000
C        2.12355000       0.00315000       0.01249000      -0.00697300       0.03240900      -0.00969300
C        2.12326000       1.42653000       0.00641000      -0.01364000      -0.02060700      -0.07595300
C       10.75099000       2.13819000       0.01213000       0.00475300      -0.00932800       0.00113700
C       -1.57382000       3.56123000       0.01110000      -0.00951400       0.00352500      -0.00053500
C        0.89078000       2.13854000       0.00548000       0.02199400      -0.04169600      -0.01598900
C        0.89099000       3.56147000       0.00181000      -0.01838700      -0.01773200       0.01963200
C        4.58864000       0.00346000       0.01135000       0.00121000      -0.02716700       0.00580800
C        4.58894000       1.42623000       0.00646000      -0.01145300       0.01039800       0.03062700
C        9.51854000       4.27281000       0.01369000       0.00618300      -0.00552000       0.00042200