53
Lattice="12.325 0.0 0.0 -6.1625 10.673763102 0.0 0.0 0.0 30.0" Properties=species:S:1:pos:R:3:forces:R:3 energy=-470.70018794 free_energy=-470.70018794 pbc="T T T"
C       11.98348000       0.00342000       0.01417000       0.00219900       0.00037400       0.00017500
C       -0.34154000       1.42665000       0.01100000       0.00227500       0.00242200       0.00037000
C        2.12355000       0.00315000       0.01249000       0.00256700       0.00039300       0.00332100
C        2.12326000       1.42653000       0.00641000       0.00198500       0.00687700       0.00438600
C       10.75099000       2.13819000       0.01213000       0.00086000      -0.00421100       0.00210000
C       -1.57382000       3.56123000       0.01110000      -0.00442000       0.00684900       0.00053600
C        0.89078000       2.13854000       0.00548000       0.00355200       0.00169100       0.00271100
C        0.89099000       3.56147000       0.00181000      -0.00349500       0.00441000      -0.00397300
C        4.58864000       0.00346000       0.01135000       0.00539200       0.00235200      -0.00143600
C        4.58894000       1.42623000       0.00646000      -0.00697100       0.00471000      -0.00387000
C        9.51854000       4.27281000       0.01369000       0.00749800      -0.00683500       0.00065200
C       -2.80632000       5.69591000       0.01434000      -0.00820800       0.00455800       0.00128000
C        2.12300000       4.27302000       0.00000000       0.00252400       0.00034800      -0.00624200
C        2.12335000       5.69594000       0.00581000      -0.00282700      -0.00834900      -0.00064400
C        7.05344000       0.00333000       0.01399000       0.00586900      -0.00262500       0.00187100
C        7.05353000       1.42635000       0.01368000      -0.00610100       0.00551000      -0.00062300
C        8.28610000       6.40752000       0.01601000       0.00366600      -0.00210600      -0.00014800
C       -4.03885000       7.83070000       0.01636000      -0.00255300       0.00266700       0.00043100
C        3.35586000       6.40753000       0.01007000       0.00165100      -0.00072700       0.00164000
C        3.35599000       7.83072000       0.01320000      -0.00295100      -0.00022600       0.00048100
C       -0.34146000       4.27290000       0.00723000       0.01071800      -0.00756900      -0.00159900
C       -0.34138000       5.69591000       0.00946000      -0.00673200       0.00278600       0.00213300
C        3.35624000       2.13791000       0.00222000       0.00372200      -0.00074100      -0.01605500
C        3.35573000       3.56155000       0.00139000      -0.00198300      -0.00066700      -0.00749500
C       -1.57395000       6.40758000       0.01311000       0.00978100      -0.00399400      -0.00033400
C       -1.57385000       7.83068000       0.01438000      -0.00487800       0.00422500       0.00080500
C        5.82093000       2.13784000       0.01033000       0.00084100      -0.00486000      -0.00247800
C        5.82114000       3.56097000       0.01156000      -0.00456000      -0.00027500       0.00264300
C        0.89092000       6.40755000       0.00907000       0.00455800      -0.00082500       0.00134900
C        0.89106000       7.83068000       0.01235000      -0.00853300       0.00004100       0.00077900
C        4.58871000       4.27293000       0.00850000      -0.00347900      -0.00827900       0.00377700
C        4.58852000       5.69606000       0.01149000       0.00037600       0.00459100       0.00117300
C        9.51845000       0.00337000       0.01490000       0.00558700      -0.00566700       0.00070000
C        9.51855000       1.42644000       0.01438000      -0.00440600       0.00878800       0.00008200
C        8.28593000       2.13803000       0.01453000       0.00332000      -0.00541200       0.00156600
C        8.28613000       3.56115000       0.01464000      -0.00461100       0.00167600       0.00095600
C        7.05356000       4.27269000       0.01457000       0.00221500      -0.00102100       0.00149700
C        7.05362000       5.69588000       0.01553000      -0.00269600       0.00049700       0.00051100
C        5.82112000       6.40755000       0.01489000      -0.00115600       0.00114800       0.00070700
C        5.82102000       7.83073000       0.01579000       0.00095800       0.00174800       0.00007400
C        7.05363000       8.54227000       0.01631000      -0.00274200      -0.00076400       0.00165100
C       -5.27149000       9.96549000       0.01495000      -0.00106300      -0.00199000      -0.00041900
C       -2.80638000       8.54234000       0.01558000       0.00264000      -0.00065500       0.00026800
C       -2.80627000       9.96553000       0.01362000      -0.00271300       0.00214400       0.00089100
C       -0.34149000       8.54239000       0.01378000       0.00613800      -0.00152200       0.00101800
C       -0.34138000       9.96550000       0.01354000      -0.00768100       0.00344100       0.00156600
C        2.12343000       8.54232000       0.01336000       0.00644300      -0.00134300       0.00127200
C        2.12354000       9.96544000       0.01469000      -0.00795000       0.00431600      -0.00157300
C        4.58846000       8.54235000       0.01505000       0.00495800      -0.00406000       0.00137800
C        4.58853000       9.96550000       0.01517000      -0.00318700       0.00357900       0.00099600
C        3.04930000       2.68154000       3.24698000      -0.01024700       0.00515000      -0.00834000
O        4.02070000       2.02068000       3.31141000      -0.27298000       0.19143400      -0.01763400
O        2.07767000       3.34267000       3.18753000       0.28683000      -0.20400000       0.02511800
53
Lattice="12.325 0.0 0.0 -6.1625 10.673763102 0.0 0.0 0.0 30.0" Properties=species:S:1:pos:R:3:forces:R:3 energy=-470.68878501 free_energy=-470.68878501 pbc="T T T"
C       11.98348000       0.00342000       0.01417000       0.00586000      -0.00137800       0.00174500
C       -0.34154000       1.42665000       0.01100000      -0.00580400      -0.00694800       0.00197000
C        2.12355000       0.00315000       0.01249000       0.00060400       0.01898200      -0.00452100
C        2.12326000       1.42653000       0.00641000      -0.00207000      -0.01851200      -0.02912600
C       10.75099000       2.13819000       0.01213000       0.00208500      -0.00829600       0.00015500
C       -1.57382000       3.56123000       0.01110000      -0.00838100       0.00673500      -0.00111000
C        0.89078000       2.13854000       0.00548000       0.02336300      -0.03252800       0.00910600
C        0.89099000       3.56147000       0.00181000       0.00487100       0.01094900       0.01746600
C        4.58864000       0.00346000       0.01135000      -0.00212600      -0.01656400       0.00315700
C        4.58894000       1.42623000       0.00646000      -0.01407400       0.00240700       0.02160200
C        9.51854000       4.27281000       0.01369000       0.00610300      -0.00432800       0.00075400
C       -2.80632000       5.69591000       0.01434000      -0.00645200       0.00500600       0.00114100
C        2.12300000       4.27302000       0.00000000       0.02723400       0.00365500      -0.00107800
C        2.12335000       5.69594000       0.00581000       0.00483600      -0.00152500       0.00203300
C        7.05344000       0.00333000       0.01399000       0.00858800      -0.00536900       0.00043100
C        7.05353000       1.42635000       0.01368000       0.00284000       0.00106700      -0.00124600
C        8.28610000       6.40752000       0.01601000       0.00149200      -0.00008800      -0.00048600
C       -4.03885000       7.83070000       0.01636000      -0.00203600       0.00322100       0.00102900
C        3.35586000       6.40753000       0.01007000       0.00504000      -0.00682800       0.00551300
C        3.35599000       7.83072000       0.01320000      -0.00291000      -0.00599900       0.00001100
C       -0.34146000       4.27290000       0.00723000      -0.00772600       0.00342100       0.00015300
C       -0.34138000       5.69591000       0.00946000      -0.00753400       0.00662300       0.00044500
C        3.35624000       2.13791000       0.00222000      -0.01771600       0.02070500      -0.01794900
C        3.35573000       3.56155000       0.00139000       0.01661100       0.00161100      -0.05424300
C       -1.57395000       6.40758000       0.01311000       0.00579300      -0.00317800      -0.00024900
C       -1.57385000       7.83068000       0.01438000      -0.00624900       0.00592500       0.00079900
C        5.82093000       2.13784000       0.01033000       0.01152400       0.00118900       0.00402200
C        5.82114000       3.56097000       0.01156000      -0.02087600       0.02195700       0.00023400
C        0.89092000       6.40755000       0.00907000       0.01099900      -0.00194400      -0.00094100
C        0.89106000       7.83068000       0.01235000      -0.00744000       0.00421600       0.00121700
C        4.58871000       4.27293000       0.00850000      -0.01479000      -0.00132800      -0.01884200
C        4.58852000       5.69606000       0.01149000      -0.00334500      -0.01122500       0.00182100
C        9.51845000       0.00337000       0.01490000       0.00524000      -0.00601300       0.00060500
C        9.51855000       1.42644000       0.01438000      -0.00579300       0.00535500       0.00025900
C        8.28593000       2.13803000       0.01453000       0.00691700      -0.00424700       0.00093700
C        8.28613000       3.56115000       0.01464000      -0.00554000       0.00392900       0.00033800
C        7.05356000       4.27269000       0.01457000       0.00563900       0.00195600       0.00236700
C        7.05362000       5.69588000       0.01553000      -0.00422400       0.00112900       0.00126800
C        5.82112000       6.40755000       0.01489000      -0.00821200      -0.00196200       0.00115900
C        5.82102000       7.83073000       0.01579000       0.00415400       0.00022200       0.00061800
C        7.05363000       8.54227000       0.01631000      -0.00458400       0.00260600       0.00230100
C       -5.27149000       9.96549000       0.01495000       0.00784700       0.00397000       0.00044400
C       -2.80638000       8.54234000       0.01558000       0.00306400       0.00299500       0.00031700
C       -2.80627000       9.96553000       0.01362000      -0.01253500       0.00834400       0.00199100
C       -0.34149000       8.54239000       0.01378000       0.00588700      -0.00577200       0.00113000
C       -0.34138000       9.96550000       0.01354000      -0.00929400       0.00238400      -0.00018400
C        2.12343000       8.54232000       0.01336000       0.00590500      -0.00239500       0.00138100
C        2.12354000       9.96544000       0.01469000      -0.00459400       0.00312400      -0.00132300
C        4.58846000       8.54235000       0.01505000       0.00361800      -0.00339300       0.00179600
C        4.58853000       9.96550000       0.01517000      -0.00205500       0.00359700       0.00056300
C        3.04917000       2.68152000       3.24698000       0.00363300       0.01075400       0.02075400
O        2.89804000       1.51640000       3.31141000       0.04456400       0.33856900      -0.02256700
O        3.20045000       3.84697000       3.18753000      -0.04795200      -0.35678600       0.04083000
53
Lattice="12.325 0.0 0.0 -6.1625 10.673763102 0.0 0.0 0.0 30.0" Properties=species:S:1:pos:R:3:forces:R:3 energy=-470.68894404 free_energy=-470.68894404 pbc="T T T"
C       11.98348000       0.00342000       0.01417000       0.00566400      -0.00147900       0.00155400
C       -0.34154000       1.42665000       0.01100000      -0.00643500      -0.00709000       0.00194500
C        2.12355000       0.00315000       0.01249000       0.00127000       0.01796500      -0.00392300
C        2.12326000       1.42653000       0.00641000      -0.00114300      -0.01795200      -0.02684500
C       10.75099000       2.13819000       0.01213000       0.00182200      -0.00810300       0.00015100
C       -1.57382000       3.56123000       0.01110000      -0.00820800       0.00696300      -0.00112500
C        0.89078000       2.13854000       0.00548000       0.02293100      -0.03108600       0.01005000
C        0.89099000       3.56147000       0.00181000       0.00601200       0.01283900       0.01666600
C        4.58864000       0.00346000       0.01135000      -0.00208000      -0.01538700       0.00291300
C        4.58894000       1.42623000       0.00646000      -0.01379300       0.00164400       0.01983900
C        9.51854000       4.27281000       0.01369000       0.00611600      -0.00433800       0.00076100
C       -2.80632000       5.69591000       0.01434000      -0.00653700       0.00505700       0.00114200
C        2.12300000       4.27302000       0.00000000       0.02555700       0.00467600      -0.00361600
C        2.12335000       5.69594000       0.00581000       0.00449300      -0.00321500       0.00150400
C        7.05344000       0.00333000       0.01399000       0.00840800      -0.00531800       0.00052000
C        7.05353000       1.42635000       0.01368000       0.00292100       0.00089800      -0.00115200
C        8.28610000       6.40752000       0.01601000       0.00170800      -0.00015100      -0.00046900
C       -4.03885000       7.83070000       0.01636000      -0.00200800       0.00332400       0.00100000
C        3.35586000       6.40753000       0.01007000       0.00450800      -0.00688100       0.00543900
C        3.35599000       7.83072000       0.01320000      -0.00282100      -0.00602600       0.00003100
C       -0.34146000       4.27290000       0.00723000      -0.00710700       0.00326900       0.00017100
C       -0.34138000       5.69591000       0.00946000      -0.00727400       0.00659100       0.00061600
C        3.35624000       2.13791000       0.00222000      -0.01607800       0.02062400      -0.01841700
C        3.35573000       3.56155000       0.00139000       0.01517400       0.00121400      -0.05313000
C       -1.57395000       6.40758000       0.01311000       0.00602100      -0.00317400      -0.00027400
C       -1.57385000       7.83068000       0.01438000      -0.00624400       0.00586500       0.00082800
C        5.82093000       2.13784000       0.01033000       0.01044100      -0.00008700       0.00361800
C        5.82114000       3.56097000       0.01156000      -0.01979400       0.02119500       0.00053800
C        0.89092000       6.40755000       0.00907000       0.01107100      -0.00220200      -0.00077200
C        0.89106000       7.83068000       0.01235000      -0.00758800       0.00387800       0.00122600
C        4.58871000       4.27293000       0.00850000      -0.01512600      -0.00164500      -0.01702500
C        4.58852000       5.69606000       0.01149000      -0.00357000      -0.00970500       0.00212400
C        9.51845000       0.00337000       0.01490000       0.00535300      -0.00604900       0.00059800
C        9.51855000       1.42644000       0.01438000      -0.00576700       0.00535600       0.00023900
C        8.28593000       2.13803000       0.01453000       0.00670700      -0.00440600       0.00091500
C        8.28613000       3.56115000       0.01464000      -0.00534900       0.00384700       0.00032500
C        7.05356000       4.27269000       0.01457000       0.00597200       0.00208600       0.00233100
C        7.05362000       5.69588000       0.01553000      -0.00405300       0.00121500       0.00115100
C        5.82112000       6.40755000       0.01489000      -0.00811300      -0.00180100       0.00104600
C        5.82102000       7.83073000       0.01579000       0.00405000       0.00047300       0.00059300
C        7.05363000       8.54227000       0.01631000      -0.00451400       0.00225400       0.00230100
C       -5.27149000       9.96549000       0.01495000       0.00773500       0.00367900       0.00031000
C       -2.80638000       8.54234000       0.01558000       0.00302100       0.00322100       0.00029400
C       -2.80627000       9.96553000       0.01362000      -0.01179300       0.00847500       0.00211700
C       -0.34149000       8.54239000       0.01378000       0.00593900      -0.00553800       0.00115400
C       -0.34138000       9.96550000       0.01354000      -0.00968800       0.00266800      -0.00013000
C        2.12343000       8.54232000       0.01336000       0.00591900      -0.00231000       0.00140300
C        2.12354000       9.96544000       0.01469000      -0.00481600       0.00307900      -0.00135000
C        4.58846000       8.54235000       0.01505000       0.00362200      -0.00349400       0.00177300
C        4.58853000       9.96550000       0.01517000      -0.00238500       0.00352200       0.00059300
C        3.04918000       2.68152000       3.24698000       0.00218000       0.01051800       0.02067800
O        2.96020000       1.51001000       3.31141000       0.02685200       0.33984700      -0.02243000
O        3.13829000       3.85337000       3.18753000      -0.02918500      -0.35880300       0.04019700
53
Lattice="12.325 0.0 0.0 -6.1625 10.673763102 0.0 0.0 0.0 30.0" Properties=species:S:1:pos:R:3:forces:R:3 energy=-470.68069414 free_energy=-470.68069414 pbc="T T T"
C       11.98348000       0.00342000       0.01417000       0.00506100       0.00240800       0.00345600
C       -0.34154000       1.42665000       0.01100000       0.01878300       0.00888400      -0.00024400
C        2.12355000       0.00315000       0.01249000      -0.00445100       0.02207300      -0.00260300
C        2.12326000       1.42653000       0.00641000      -0.01366200      -0.00857900      -0.06185100
C       10.75099000       2.13819000       0.01213000       0.00536200      -0.00638700       0.00264400
C       -1.57382000       3.56123000       0.01110000      -0.00707600       0.00180300       0.00118100
C        0.89078000       2.13854000       0.00548000       0.00256200      -0.02064700      -0.03003100
C        0.89099000       3.56147000       0.00181000      -0.02520400      -0.03238200       0.00692100
C        4.58864000       0.00346000       0.01135000       0.00418500      -0.00664500       0.00172400
C        4.58894000       1.42623000       0.00646000       0.00045300       0.01249400       0.01386800
C        9.51854000       4.27281000       0.01369000       0.00662200      -0.00779500       0.00039000
C       -2.80632000       5.69591000       0.01434000      -0.00747500       0.00360000       0.00124500
C        2.12300000       4.27302000       0.00000000       0.02802100      -0.01937700       0.02822600
C        2.12335000       5.69594000       0.00581000       0.00341900       0.02409300       0.00681000
C        7.05344000       0.00333000       0.01399000       0.00794100      -0.00415700       0.00109300
C        7.05353000       1.42635000       0.01368000      -0.01019200       0.00900800      -0.00159400
C        8.28610000       6.40752000       0.01601000       0.00046700      -0.00116900      -0.00049200
C       -4.03885000       7.83070000       0.01636000      -0.00177900       0.00116000       0.00047100
C        3.35586000       6.40753000       0.01007000       0.00452800       0.00008900       0.00336200
C        3.35599000       7.83072000       0.01320000      -0.00418700       0.00047500       0.00039800
C       -0.34146000       4.27290000       0.00723000       0.00207300      -0.00621600      -0.00050400
C       -0.34138000       5.69591000       0.00946000      -0.01126500       0.00398200      -0.00022200
C        3.35624000       2.13791000       0.00222000      -0.02772300      -0.01161500      -0.06609000
C        3.35573000       3.56155000       0.00139000       0.02266300       0.02336500      -0.08997300
C       -1.57395000       6.40758000       0.01311000       0.00760000      -0.00369600       0.00011800
C       -1.57385000       7.83068000       0.01438000      -0.00414500       0.00460400       0.00036400
C        5.82093000       2.13784000       0.01033000       0.00855400       0.01334800       0.00229500
C        5.82114000       3.56097000       0.01156000      -0.02859200       0.01329300      -0.00427300
C        0.89092000       6.40755000       0.00907000       0.00450600       0.00185600      -0.00131600
C        0.89106000       7.83068000       0.01235000      -0.00498400       0.00523300       0.00061200
C        4.58871000       4.27293000       0.00850000       0.00005400      -0.00458400      -0.04073300
C        4.58852000       5.69606000       0.01149000       0.00337800      -0.02846900      -0.00167000
C        9.51845000       0.00337000       0.01490000       0.00253800      -0.00555000       0.00077000
C        9.51855000       1.42644000       0.01438000      -0.00438600       0.00985800       0.00024400
C        8.28593000       2.13803000       0.01453000       0.00629800      -0.00301200       0.00224400
C        8.28613000       3.56115000       0.01464000      -0.00725400       0.00352300       0.00171200
C        7.05356000       4.27269000       0.01457000      -0.00758100      -0.00548400       0.00223300
C        7.05362000       5.69588000       0.01553000      -0.00629700      -0.00188200       0.00236700
C        5.82112000       6.40755000       0.01489000      -0.00143800       0.00121400       0.00313400
C        5.82102000       7.83073000       0.01579000       0.00299900      -0.00352600       0.00028700
C        7.05363000       8.54227000       0.01631000      -0.00537300       0.00586700       0.00143400
C       -5.27149000       9.96549000       0.01495000      -0.00184500       0.00116900       0.00335600
C       -2.80638000       8.54234000       0.01558000       0.00232000      -0.00353500       0.00085500
C       -2.80627000       9.96553000       0.01362000      -0.01495400       0.00030700       0.00059000
C       -0.34149000       8.54239000       0.01378000       0.00436400      -0.00420900       0.00050800
C       -0.34138000       9.96550000       0.01354000       0.00063600      -0.00129400       0.00109000
C        2.12343000       8.54232000       0.01336000       0.00608900      -0.00301800       0.00104300
C        2.12354000       9.96544000       0.01469000      -0.00426000       0.00516500      -0.00126000
C        4.58846000       8.54235000       0.01505000       0.00408800      -0.00235600       0.00148500
C        4.58853000       9.96550000       0.01517000       0.00315000       0.00403700       0.00059500
C        3.04910000       2.68162000       3.04155000       0.02807900       0.01170100       0.06229900
O        1.94983000       2.26696000       3.10597000       0.33545100       0.13900000       0.00731200
O        4.14874000       3.09631000       2.98210000      -0.32812100      -0.13802800       0.13411600
53
Lattice="12.325 0.0 0.0 -6.1625 10.673763102 0.0 0.0 0.0 30.0" Properties=species:S:1:pos:R:3:forces:R:3 energy=-470.68858333 free_energy=-470.68858333 pbc="T T T"
C       11.98348000       0.00342000       0.01417000       0.00667200      -0.00079400       0.00288700
C       -0.34154000       1.42665000       0.01100000      -0.00215700      -0.00521600       0.00238100
C        2.12355000       0.00315000       0.01249000      -0.00093900       0.02840600      -0.00873100
C        2.12326000       1.42653000       0.00641000      -0.00517900      -0.01978700      -0.05407800
C       10.75099000       2.13819000       0.01213000       0.00312900      -0.00917300       0.00028300
C       -1.57382000       3.56123000       0.01110000      -0.00908600       0.00592900      -0.00100700
C        0.89078000       2.13854000       0.00548000       0.03024000      -0.04041100       0.00212000
C        0.89099000       3.56147000       0.00181000      -0.00261400       0.00085000       0.02031300
C        4.58864000       0.00346000       0.01135000      -0.00316000      -0.01915300       0.00476800
C        4.58894000       1.42623000       0.00646000      -0.01897100       0.00726400       0.02308100
C        9.51854000       4.27281000       0.01369000       0.00608200      -0.00458000       0.00069900
C       -2.80632000       5.69591000       0.01434000      -0.00596500       0.00509300       0.00113200
C        2.12300000       4.27302000       0.00000000       0.02456900       0.00274700       0.01591700
C        2.12335000       5.69594000       0.00581000       0.00482900       0.00739000       0.00318800
C        7.05344000       0.00333000       0.01399000       0.00927800      -0.00521300       0.00022500
C        7.05353000       1.42635000       0.01368000       0.00283700       0.00173900      -0.00128500
C        8.28610000       6.40752000       0.01601000       0.00094500      -0.00015800      -0.00052300
C       -4.03885000       7.83070000       0.01636000      -0.00230500       0.00229300       0.00113100
C        3.35586000       6.40753000       0.01007000       0.00641000      -0.00523200       0.00439200
C        3.35599000       7.83072000       0.01320000      -0.00318800      -0.00483400       0.00005200
C       -0.34146000       4.27290000       0.00723000      -0.00883400       0.00391000      -0.00015700
C       -0.34138000       5.69591000       0.00946000      -0.00825200       0.00650600      -0.00017500
C        3.35624000       2.13791000       0.00222000      -0.02402700       0.00935400      -0.03043000
C        3.35573000       3.56155000       0.00139000       0.02097700      -0.00673700      -0.03058300
C       -1.57395000       6.40758000       0.01311000       0.00471500      -0.00363700      -0.00011700
C       -1.57385000       7.83068000       0.01438000      -0.00573200       0.00587900       0.00072300
C        5.82093000       2.13784000       0.01033000       0.01270800       0.00367600       0.00403100
C        5.82114000       3.56097000       0.01156000      -0.02072500       0.02246400      -0.00058300
C        0.89092000       6.40755000       0.00907000       0.00945600      -0.00083500      -0.00149300
C        0.89106000       7.83068000       0.01235000      -0.00638200       0.00539200       0.00114600
C        4.58871000       4.27293000       0.00850000      -0.00657600       0.00292100      -0.01720600
C        4.58852000       5.69606000       0.01149000      -0.00106900      -0.01262300       0.00042300
C        9.51845000       0.00337000       0.01490000       0.00461200      -0.00630600       0.00062500
C        9.51855000       1.42644000       0.01438000      -0.00578100       0.00615800       0.00030300
C        8.28593000       2.13803000       0.01453000       0.00723700      -0.00388800       0.00105200
C        8.28613000       3.56115000       0.01464000      -0.00616900       0.00430400       0.00035700
C        7.05356000       4.27269000       0.01457000       0.00476700       0.00201700       0.00226400
C        7.05362000       5.69588000       0.01553000      -0.00485600       0.00061600       0.00150200
C        5.82112000       6.40755000       0.01489000      -0.00742000      -0.00219700       0.00136400
C        5.82102000       7.83073000       0.01579000       0.00413000      -0.00069000       0.00062200
C        7.05363000       8.54227000       0.01631000      -0.00525600       0.00375800       0.00236500
C       -5.27149000       9.96549000       0.01495000       0.00931500       0.00588100       0.00121600
C       -2.80638000       8.54234000       0.01558000       0.00331400       0.00339800       0.00034600
C       -2.80627000       9.96553000       0.01362000      -0.01503600       0.00909100       0.00254000
C       -0.34149000       8.54239000       0.01378000       0.00562800      -0.00676300       0.00104500
C       -0.34138000       9.96550000       0.01354000      -0.00918100       0.00212600      -0.00044900
C        2.12343000       8.54232000       0.01336000       0.00574000      -0.00336300       0.00128000
C        2.12354000       9.96544000       0.01469000      -0.00412200       0.00335900      -0.00127700
C        4.58846000       8.54235000       0.01505000       0.00338300      -0.00353900       0.00183400
C        4.58853000       9.96550000       0.01517000      -0.00065400       0.00367600       0.00042400
C        3.04929000       2.68173000       3.24698000      -0.00312300      -0.01514400       0.02019700
O        3.39316000       3.80516000       3.31141000      -0.09890700      -0.32904100      -0.02333000
O        2.70521000       1.55800000       3.18753000       0.10469300       0.34311700       0.04319600
53
Lattice="12.325 0.0 0.0 -6.1625 10.673763102 0.0 0.0 0.0 30.0" Properties=species:S:1:pos:R:3:forces:R:3 energy=-470.69248174 free_energy=-470.69248174 pbc="T T T"
C       11.98348000       0.00342000       0.01417000       0.00736600       0.00064900       0.00381000
C       -0.34154000       1.42665000       0.01100000       0.00779700       0.00096300       0.00150000
C        2.12355000       0.00315000       0.01249000      -0.00502100       0.03172000      -0.00808200
C        2.12326000       1.42653000       0.00641000      -0.01040700      -0.01610300      -0.05948300
C       10.75099000       2.13819000       0.01213000       0.00501700      -0.00932500       0.00095000
C       -1.57382000       3.56123000       0.01110000      -0.00928200       0.00388800      -0.00021200
C        0.89078000       2.13854000       0.00548000       0.02395100      -0.03763000      -0.00970500
C        0.89099000       3.56147000       0.00181000      -0.01285900      -0.01811200       0.01879400
C        4.58864000       0.00346000       0.01135000       0.00000300      -0.02337200       0.00433700
C        4.58894000       1.42623000       0.00646000      -0.01532400       0.01320500       0.03028700
C        9.51854000       4.27281000       0.01369000       0.00633000      -0.00558800       0.00056000