 vasp.6.2.1 16May21 (build Nov 06 2021 14:46:37) complex                        
  
 executed on             LinuxIFC date 2025.04.16  17:34:55
 running on  112 total cores
 distrk:  each k-point on   56 cores,    2 groups
 distr:  one band on NCORE=   1 cores,   56 groups


--------------------------------------------------------------------------------------------------------


 INCAR:
   ALGO = Conjugate
   KPAR = 2
   NCORE = 32
   ISMEAR = 0
   SIGMA = 0.01
   PREC = Accurate
   EDIFF = 1E-7
   ENCUT = 1000
   ISIF = 0
   METAGGA = R2SCAN
   LASPH = .TRUE.
   SYMPREC = 1E-7

 POTCAR:    PAW_PBE C_h 06Feb2004                 
 POTCAR:    PAW_PBE O_h 06Feb2004                 
 -----------------------------------------------------------------------------
|                                                                             |
|           W    W    AA    RRRRR   N    N  II  N    N   GGGG   !!!           |
|           W    W   A  A   R    R  NN   N  II  NN   N  G    G  !!!           |
|           W    W  A    A  R    R  N N  N  II  N N  N  G       !!!           |
|           W WW W  AAAAAA  RRRRR   N  N N  II  N  N N  G  GGG   !            |
|           WW  WW  A    A  R   R   N   NN  II  N   NN  G    G                |
|           W    W  A    A  R    R  N    N  II  N    N   GGGG   !!!           |
|                                                                             |
|     The value NCORE = 32 specified in the INCAR file was overwritten,       |
|     because it was not compatible with the 56 processes available:          |
|     NCORE = 1                                                               |
|     was used instead, please check that this makes sense for your           |
|     machine.                                                                |
|                                                                             |
 -----------------------------------------------------------------------------

 -----------------------------------------------------------------------------
|                                                                             |
|           W    W    AA    RRRRR   N    N  II  N    N   GGGG   !!!           |
|           W    W   A  A   R    R  NN   N  II  NN   N  G    G  !!!           |
|           W    W  A    A  R    R  N N  N  II  N N  N  G       !!!           |
|           W WW W  AAAAAA  RRRRR   N  N N  II  N  N N  G  GGG   !            |
|           WW  WW  A    A  R   R   N   NN  II  N   NN  G    G                |
|           W    W  A    A  R    R  N    N  II  N    N   GGGG   !!!           |
|                                                                             |
|     For optimal performance we recommend to set                             |
|       NCORE = 2 up to number-of-cores-per-socket                            |
|     NCORE specifies how many cores store one orbital (NPAR=cpu/NCORE).      |
|     This setting can greatly improve the performance of VASP for DFT.       |
|     The default, NCORE=1 might be grossly inefficient on modern             |
|     multi-core architectures or massively parallel machines. Do your        |
|     own testing! More info at https://www.vasp.at/wiki/index.php/NCORE      |
|     Unfortunately you need to use the default for GW and RPA                |
|     calculations (for HF NCORE is supported but not extensively tested      |
|     yet).                                                                   |
|                                                                             |
 -----------------------------------------------------------------------------

 POTCAR:    PAW_PBE C_h 06Feb2004                 
   VRHFIN =C: s2p2                                                                                  
   LEXCH  = PE                                                                                      
   EATOM  =   147.1560 eV,   10.8157 Ry                                                             
                                                                                                    
   TITEL  = PAW_PBE C_h 06Feb2004                                                                   
   LULTRA =        F    use ultrasoft PP ?                                                          
   IUNSCR =        1    unscreen: 0-lin 1-nonlin 2-no                                               
   RPACOR =    0.800    partial core radius                                                         
   POMASS =   12.011; ZVAL   =    4.000    mass and valenz                                          
   RCORE  =    1.100    outmost cutoff radius                                                       
   RWIGS  =    1.630; RWIGS  =    0.863    wigner-seitz radius (au A)                               
   ENMAX  =  700.000; ENMIN  =  500.000 eV                                                          
   ICORE  =        2    local potential                                                             
   LCOR   =        T    correct aug charges                                                         
   LPAW   =        T    paw PP                                                                      
   EAUG   =  946.768                                                                                
   DEXC   =    0.000                                                                                
   RMAX   =    1.128    core radius for proj-oper                                                   
   RAUG   =    1.300    factor for augmentation sphere                                              
   RDEP   =    1.162    radius for radial grids                                                     
   RDEPT  =    1.088    core radius for aug-charge                                                  
                                                                                                    
   Atomic configuration                                                                             
    4 entries                                                                                       
     n  l   j            E        occ.                                                              
     1  0  0.50      -273.3789   2.0000                                                             
     2  0  0.50       -13.7508   2.0000                                                             
     2  1  0.50        -5.2854   2.0000                                                             
     3  2  1.50        -5.4423   0.0000                                                             
   Description                                                                                      
     l       E           TYP  RCUT    TYP  RCUT                                                     
     0    -13.7508458     23  1.100                                                                 
     0     -8.2022199     23  1.100                                                                 
     1     -5.2854383     23  1.100                                                                 
     1      1.1560700     23  1.100                                                                 
     2     -5.4423304      7  1.100                                                                 
  local pseudopotential read in
  partial core-charges read in
  partial kinetic energy density read in
  atomic valenz-charges read in
  non local Contribution for L=           0  read in
    real space projection operators read in
  non local Contribution for L=           0  read in
    real space projection operators read in
  non local Contribution for L=           1  read in
    real space projection operators read in
  non local Contribution for L=           1  read in
    real space projection operators read in
    PAW grid and wavefunctions read in
 
   number of l-projection  operators is LMAX  =           4
   number of lm-projection operators is LMMAX =           8
 
 POTCAR:    PAW_PBE O_h 06Feb2004                 
   VRHFIN =O: s2p4                                                                                  
   LEXCH  = PE                                                                                      
   EATOM  =   432.3788 eV,   31.7789 Ry                                                             
                                                                                                    
   TITEL  = PAW_PBE O_h 06Feb2004                                                                   
   LULTRA =        F    use ultrasoft PP ?                                                          
   IUNSCR =        1    unscreen: 0-lin 1-nonlin 2-no                                               
   RPACOR =    0.800    partial core radius                                                         
   POMASS =   16.000; ZVAL   =    6.000    mass and valenz                                          
   RCORE  =    1.100    outmost cutoff radius                                                       
   RWIGS  =    1.400; RWIGS  =    0.741    wigner-seitz radius (au A)                               
   ENMAX  =  700.000; ENMIN  =  500.000 eV                                                          
   ICORE  =        2    local potential                                                             
   LCOR   =        T    correct aug charges                                                         
   LPAW   =        T    paw PP                                                                      
   EAUG   =  888.804                                                                                
   DEXC   =    0.000                                                                                
   RMAX   =    1.128    core radius for proj-oper                                                   
   RAUG   =    1.300    factor for augmentation sphere                                              
   RDEP   =    1.125    radius for radial grids                                                     
   RDEPT  =    1.088    core radius for aug-charge                                                  
                                                                                                    
   Atomic configuration                                                                             
    4 entries                                                                                       
     n  l   j            E        occ.                                                              
     1  0  0.50      -514.6923   2.0000                                                             
     2  0  0.50       -23.9615   2.0000                                                             
     2  1  0.50        -9.0305   4.0000                                                             
     3  2  1.50        -9.5241   0.0000                                                             
   Description                                                                                      
     l       E           TYP  RCUT    TYP  RCUT                                                     
     0    -23.9615319     23  1.100                                                                 
     0    -25.3221145     23  1.100                                                                 
     1     -9.0304911     23  1.100                                                                 
     1     -5.4802209     23  1.100                                                                 
     2     -9.5240782      7  1.100                                                                 
  local pseudopotential read in
  partial core-charges read in
  partial kinetic energy density read in
  atomic valenz-charges read in
  non local Contribution for L=           0  read in
    real space projection operators read in
  non local Contribution for L=           0  read in
    real space projection operators read in
  non local Contribution for L=           1  read in
    real space projection operators read in
  non local Contribution for L=           1  read in
    real space projection operators read in
    PAW grid and wavefunctions read in
 
   number of l-projection  operators is LMAX  =           4
   number of lm-projection operators is LMMAX =           8
 
 -----------------------------------------------------------------------------
|                                                                             |
|               ----> ADVICE to this user running VASP <----                  |
|                                                                             |
|     You have a (more or less) 'large supercell' and for larger cells it     |
|     might be more efficient to use real-space projection operators.         |
|     Therefore, try LREAL= Auto in the INCAR file.                           |
|     Mind: For very accurate calculation, you might also keep the            |
|     reciprocal projection scheme (i.e. LREAL=.FALSE.).                      |
|                                                                             |
 -----------------------------------------------------------------------------

  PAW_PBE C_h 06Feb2004                 :
 energy of atom  1       EATOM= -147.1560
 kinetic energy error for atom=    0.0031 (will be added to EATOM!!)
  PAW_PBE O_h 06Feb2004                 :
 energy of atom  2       EATOM= -432.3788
 kinetic energy error for atom=    0.0171 (will be added to EATOM!!)
 
 
 POSCAR:  C  O
  positions in cartesian coordinates
  No initial velocities read in

 METAGGA = R2SCA    LMAXTAU =  6    LMIXTAU =  F

 exchange correlation table for  LEXCH =        8
   RHO(1)=    0.500       N(1)  =     2000
   RHO(2)=  100.500       N(2)  =     4000
 


--------------------------------------------------------------------------------------------------------


 ion  position               nearest neighbor table
   1  0.972  0.000  0.001-  50 1.42   2 1.42  42 1.42
   2  0.039  0.134  0.000-   5 1.42   7 1.42   1 1.42
   3  0.172  0.000  0.000-  42 1.42  44 1.42   4 1.42
   4  0.239  0.134  0.000-   7 1.42   3 1.42  23 1.42
   5  0.972  0.200  0.000-   6 1.42   2 1.42  34 1.42
   6  0.039  0.334  0.000-   5 1.42  21 1.42  11 1.42
   7  0.172  0.200  0.000-   8 1.42   2 1.42   4 1.42
   8  0.239  0.334  0.000-  13 1.42   7 1.42  21 1.42
   9  0.372  0.000  0.000-  10 1.42  44 1.42  46 1.42
  10  0.439  0.134  0.000-  27 1.42   9 1.42  23 1.42
  11  0.972  0.400  0.001-  12 1.42  36 1.42   6 1.42
  12  0.039  0.534  0.001-  25 1.42  11 1.42  17 1.42
  13  0.372  0.400  0.000-   8 1.42  14 1.42  24 1.42
  14  0.439  0.534  0.000-  13 1.42  29 1.42  19 1.42
  15  0.572  0.000  0.001-  46 1.42  16 1.42  48 1.42
  16  0.639  0.134  0.001-  15 1.42  35 1.42  27 1.42
  17  0.972  0.600  0.001-  38 1.42  18 1.42  12 1.42
  18  0.039  0.734  0.001-  43 1.42  41 1.42  17 1.42
  19  0.572  0.600  0.000-  14 1.42  20 1.42  32 1.42
  20  0.639  0.734  0.001-  49 1.42  19 1.42  47 1.42
  21  0.172  0.400  0.000-  22 1.42   8 1.42   6 1.42
  22  0.239  0.534  0.000-  21 1.42  29 1.42  25 1.42
  23  0.372  0.200  0.000-  10 1.42   4 1.42  24 1.42
  24  0.439  0.334  0.000-  13 1.42  31 1.42  23 1.42
  25  0.172  0.600  0.001-  26 1.42  12 1.42  22 1.42
  26  0.239  0.734  0.001-  25 1.42  45 1.42  43 1.42
  27  0.572  0.200  0.000-  10 1.42  28 1.42  16 1.42
  28  0.639  0.334  0.000-  27 1.42  37 1.42  31 1.42
  29  0.372  0.600  0.000-  22 1.42  14 1.42  30 1.42
  30  0.439  0.734  0.000-  47 1.42  29 1.42  45 1.42
  31  0.572  0.400  0.000-  32 1.42  28 1.42  24 1.42
  32  0.639  0.534  0.000-  31 1.42  39 1.42  19 1.42
  33  0.772  0.000  0.001-  34 1.42  48 1.42  50 1.42
  34  0.839  0.134  0.001-  33 1.42   5 1.42  35 1.42
  35  0.772  0.200  0.001-  36 1.42  16 1.42  34 1.42
  36  0.839  0.334  0.001-  35 1.42  11 1.42  37 1.42
  37  0.772  0.400  0.001-  28 1.42  38 1.42  36 1.42
  38  0.839  0.534  0.001-  17 1.42  37 1.42  39 1.42
  39  0.772  0.600  0.001-  40 1.42  38 1.42  32 1.42
  40  0.839  0.734  0.001-  39 1.42  49 1.42  41 1.42
  41  0.972  0.800  0.001-  18 1.42  42 1.42  40 1.42
  42  0.039  0.934  0.001-   3 1.42  41 1.42   1 1.42
  43  0.172  0.800  0.001-  18 1.42  44 1.42  26 1.42
  44  0.239  0.934  0.001-   9 1.42  43 1.42   3 1.42
  45  0.372  0.800  0.001-  26 1.42  46 1.42  30 1.42
  46  0.439  0.934  0.001-  15 1.42  45 1.42   9 1.42
  47  0.572  0.800  0.001-  30 1.42  48 1.42  20 1.42
  48  0.639  0.934  0.001-  47 1.42  33 1.42  15 1.42
  49  0.772  0.800  0.001-  50 1.42  20 1.42  40 1.42
  50  0.839  0.934  0.001-  49 1.42   1 1.42  33 1.42
  51  0.373  0.251  0.119-  52 1.18  53 1.18
  52  0.421  0.189  0.121-  51 1.18
  53  0.325  0.313  0.117-  51 1.18
 
  LATTYP: Found a hexagonal cell.
 ALAT       =    12.3250000000
 C/A-ratio  =     2.0283975659
  
  Lattice vectors:
  
 A1 = (  12.3250000000,   0.0000000000,   0.0000000000)
 A2 = (  -6.1625000000,  10.6737631016,   0.0000000000)
 A3 = (   0.0000000000,   0.0000000000,  25.0000000000)


Analysis of symmetry for initial positions (statically):
=====================================================================
 Subroutine PRICEL returns:
 Original cell was already a primitive cell.
 

 Routine SETGRP: Setting up the symmetry group for a 
 hexagonal supercell.


 Subroutine GETGRP returns: Found  1 space group operations
 (whereof  1 operations were pure point group operations)
 out of a pool of 24 trial point group operations.


The static configuration has the point symmetry C_1 .


Analysis of symmetry for dynamics (positions and initial velocities):
=====================================================================
 Subroutine PRICEL returns:
 Original cell was already a primitive cell.
 

 Routine SETGRP: Setting up the symmetry group for a 
 hexagonal supercell.


 Subroutine GETGRP returns: Found  1 space group operations
 (whereof  1 operations were pure point group operations)
 out of a pool of 24 trial point group operations.


The dynamic configuration has the point symmetry C_1 .


 Subroutine INISYM returns: Found  1 space group operations
 (whereof  1 operations are pure point group operations),
 and found     1 'primitive' translations


----------------------------------------------------------------------------------------

                                     Primitive cell                                     

  volume of cell :    3288.8533

  direct lattice vectors                    reciprocal lattice vectors
    12.325000000  0.000000000  0.000000000     0.081135903  0.046843835  0.000000000
    -6.162500000 10.673763102  0.000000000     0.000000000  0.093687670  0.000000000
     0.000000000  0.000000000 25.000000000     0.000000000  0.000000000  0.040000000

  length of vectors
    12.325000000 12.325000000 25.000000000     0.093687670  0.093687670  0.040000000

  position of ions in fractional coordinates (direct lattice)
     0.972450841  0.000320818  0.000566711
     0.039118382  0.133659505  0.000440173
     0.172443627  0.000295449  0.000499628
     0.239096278  0.133647917  0.000256468
     0.972452058  0.200322012  0.000485219
     0.039128360  0.333643771  0.000444150
     0.172451764  0.200354552  0.000219167
     0.239124359  0.333665720  0.000072260
     0.372465565  0.000324403  0.000453913
     0.439137473  0.133619939  0.000258338
     0.972449824  0.400309362  0.000547611
     0.039124981  0.533636789  0.000573410
     0.372416176  0.400329481  0.000000000
     0.439099602  0.533638981  0.000232414
     0.572443676  0.000312125  0.000559580
     0.639110207  0.133631751  0.000547275
     0.972452703  0.600305653  0.000640289
     0.039124495  0.733640359  0.000654513
     0.572433471  0.600306242  0.000402895
     0.639111888  0.733641879  0.000527905
     0.172454630  0.400318228  0.000289045
     0.239120185  0.533636548  0.000378509
     0.372459750  0.200295993  0.000088997
     0.439107096  0.333673419  0.000055762
     0.172452155  0.600311506  0.000524340
     0.239123371  0.733638574  0.000575129
     0.572431082  0.200289171  0.000413296
     0.639112773  0.333618630  0.000462376
     0.372439808  0.600308022  0.000362844
     0.439116090  0.733637858  0.000494190
     0.572469358  0.400320504  0.000339918
     0.639119408  0.533650873  0.000459610
     0.772445723  0.000315427  0.000596161
     0.839116277  0.133640203  0.000575306
     0.772440513  0.200307432  0.000581033
     0.839120241  0.333635728  0.000585467
     0.772446320  0.400298367  0.000582978
     0.839118980  0.533633964  0.000621100
     0.772456143  0.600308173  0.000595712
     0.839115033  0.733643180  0.000631512
     0.972455313  0.800305582  0.000652233
     0.039114714  0.933643289  0.000598051
     0.172457971  0.800312211  0.000623372
     0.239134551  0.933647193  0.000544850
     0.372451396  0.800316674  0.000551399
     0.439124489  0.933644769  0.000541430
     0.572441101  0.800310054  0.000534535
     0.639115067  0.933638985  0.000587644
     0.772445098  0.800313187  0.000602062
     0.839116614  0.933644338  0.000606830
     0.373021009  0.251226878  0.118920712
     0.420879805  0.189313152  0.121497586
     0.325156981  0.313167186  0.116542517

  ion indices of the primitive-cell ions
   primitive index   ion index
                 1           1
                 2           2
                 3           3
                 4           4
                 5           5
                 6           6
                 7           7
                 8           8
                 9           9
                10          10
                11          11
                12          12
                13          13
                14          14
                15          15
                16          16
                17          17
                18          18
                19          19
                20          20
                21          21
                22          22
                23          23
                24          24
                25          25
                26          26
                27          27
                28          28
                29          29
                30          30
                31          31
                32          32
                33          33
                34          34
                35          35
                36          36
                37          37
                38          38
                39          39
                40          40
                41          41
                42          42
                43          43
                44          44
                45          45
                46          46
                47          47
                48          48
                49          49
                50          50
                51          51
                52          52
                53          53

----------------------------------------------------------------------------------------

 
 
 KPOINTS: auto                                    

Automatic generation of k-mesh.
 Grid dimensions read from file:
 generate k-points for:    1    1    1

 Generating k-lattice:

  Cartesian coordinates                     Fractional coordinates (reciprocal lattice)
     0.081135903  0.046843835  0.000000000     1.000000000 -0.000000000  0.000000000
     0.000000000  0.093687670  0.000000000     0.000000000  1.000000000  0.000000000
     0.000000000  0.000000000  0.040000000     0.000000000  0.000000000  1.000000000

  Length of vectors
     0.093687670  0.093687670  0.040000000

  Shift w.r.t. Gamma in fractional coordinates (k-lattice)
     0.000000000  0.000000000  0.000000000

 
 Subroutine IBZKPT returns following result:
 ===========================================
 
 Found      1 irreducible k-points:
 
 Following reciprocal coordinates:
            Coordinates               Weight
  0.000000  0.000000  0.000000      1.000000
 
 Following cartesian coordinates:
            Coordinates               Weight
  0.000000  0.000000  0.000000      1.000000
 


--------------------------------------------------------------------------------------------------------




 Dimension of arrays:
   k-points           NKPTS =      1   k-points in BZ     NKDIM =      1   number of bands    NBANDS=    168
   number of dos      NEDOS =    301   number of ions     NIONS =     53
   non local maximal  LDIM  =      4   non local SUM 2l+1 LMDIM =      8
   total plane-waves  NPLWV = ******
   max r-space proj   IRMAX =      1   max aug-charges    IRDMAX=  10008
   dimension x,y,z NGX =   128 NGY =  128 NGZ =  270
   dimension x,y,z NGXF=   256 NGYF=  256 NGZF=  540
   support grid    NGXF=   256 NGYF=  256 NGZF=  540
   ions per type =              51   2
   NGX,Y,Z   is equivalent  to a cutoff of  17.27, 17.27, 17.95 a.u.
   NGXF,Y,Z  is equivalent  to a cutoff of  34.53, 34.53, 35.91 a.u.

 SYSTEM =  unknown system                          
 POSCAR =   C  O                                   

 Startparameter for this run:
   NWRITE =      2    write-flag & timer
   PREC   = accura    normal or accurate (medium, high low for compatibility)
   ISTART =      0    job   : 0-new  1-cont  2-samecut
   ICHARG =      2    charge: 1-file 2-atom 10-const
   ISPIN  =      1    spin polarized calculation?
   LNONCOLLINEAR =      F non collinear calculations
   LSORBIT =      F    spin-orbit coupling
   INIWAV =      1    electr: 0-lowe 1-rand  2-diag
   LASPH  =      T    aspherical Exc in radial PAW
 Electronic Relaxation 1
   ENCUT  = 1000.0 eV  73.50 Ry    8.57 a.u.  31.78 31.78 64.46*2*pi/ulx,y,z
   ENINI  = 1000.0     initial cutoff
   ENAUG  =  946.8 eV  augmentation charge cutoff
   NELM   =     60;   NELMIN=  2; NELMDL= -5     # of ELM steps 
   EDIFF  = 0.1E-06   stopping-criterion for ELM
   LREAL  =      F    real-space projection
   NLSPLINE    = F    spline interpolate recip. space projectors
   LCOMPAT=      F    compatible to vasp.4.4
   GGA_COMPAT  = T    GGA compatible to vasp.4.4-vasp.4.6
   LMAXPAW     = -100 max onsite density
   LMAXMIX     =    2 max onsite mixed and CHGCAR
   VOSKOWN=      0    Vosko Wilk Nusair interpolation
   ROPT   =    0.00000   0.00000
 Ionic relaxation
   EDIFFG = 0.1E-05   stopping-criterion for IOM
   NSW    =      0    number of steps for IOM
   NBLOCK =      1;   KBLOCK =      1    inner block; outer block 
   IBRION =     -1    ionic relax: 0-MD 1-quasi-New 2-CG
   NFREE  =      0    steps in history (QN), initial steepest desc. (CG)
   ISIF   =      0    stress and relaxation
   IWAVPR =     10    prediction:  0-non 1-charg 2-wave 3-comb
   ISYM   =      2    0-nonsym 1-usesym 2-fastsym
   LCORR  =      T    Harris-Foulkes like correction to forces

   POTIM  = 0.5000    time-step for ionic-motion
   TEIN   =    0.0    initial temperature
   TEBEG  =    0.0;   TEEND  =   0.0 temperature during run
   SMASS  =  -3.00    Nose mass-parameter (am)
   estimated Nose-frequenzy (Omega)   =  0.10E-29 period in steps = 0.13E+47 mass=  -0.347E-26a.u.
   SCALEE = 1.0000    scale energy and forces
   NPACO  =    256;   APACO  = 16.0  distance and # of slots for P.C.
   PSTRESS=    0.0 pullay stress

  Mass of Ions in am
   POMASS =  12.01 16.00
  Ionic Valenz
   ZVAL   =   4.00  6.00
  Atomic Wigner-Seitz radii
   RWIGS  =  -1.00 -1.00
  virtual crystal weights 
   VCA    =   1.00  1.00
   NELECT =     216.0000    total number of electrons
   NUPDOWN=      -1.0000    fix difference up-down

 DOS related values:
   EMIN   =  10.00;   EMAX   =-10.00  energy-range for DOS
   EFERMI =   0.00
   ISMEAR =     0;   SIGMA  =   0.01  broadening in eV -4-tet -1-fermi 0-gaus

 Electronic relaxation 2 (details)
   IALGO  =     58    algorithm
   LDIAG  =      T    sub-space diagonalisation (order eigenvalues)
   LSUBROT=      F    optimize rotation matrix (better conditioning)
   TURBO    =      0    0=normal 1=particle mesh
   IRESTART =      0    0=no restart 2=restart with 2 vectors
   NREBOOT  =      0    no. of reboots
   NMIN     =      0    reboot dimension
   EREF     =   0.00    reference energy to select bands
   IMIX   =      4    mixing-type and parameters
     AMIX     =   0.40;   BMIX     =  1.00
     AMIX_MAG =   1.60;   BMIX_MAG =  1.00
     AMIN     =   0.10
     WC   =   100.;   INIMIX=   1;  MIXPRE=   1;  MAXMIX= -45

 Intra band minimization:
   WEIMIN = 0.0000     energy-eigenvalue tresh-hold
   EBREAK =  0.15E-09  absolut break condition
   DEPER  =   0.30     relativ break condition  

   TIME   =   0.40     timestep for ELM

  volume/ion in A,a.u.               =      62.05       418.76
  Fermi-wavevector in a.u.,A,eV,Ry     =   0.660508  1.248179  5.935820  0.436270
  Thomas-Fermi vector in A             =   1.732977
 
 Write flags
   LWAVE        =      T    write WAVECAR
   LDOWNSAMPLE  =      F    k-point downsampling of WAVECAR
   LCHARG       =      T    write CHGCAR
   LVTOT        =      F    write LOCPOT, total local potential
   LVHAR        =      F    write LOCPOT, Hartree potential only
   LELF         =      F    write electronic localiz. function (ELF)
   LORBIT       =      0    0 simple, 1 ext, 2 COOP (PROOUT), +10 PAW based schemes


 Dipole corrections
   LMONO  =      F    monopole corrections only (constant potential shift)
   LDIPOL =      F    correct potential (dipole corrections)
   IDIPOL =      0    1-x, 2-y, 3-z, 4-all directions 
   EPSILON=  1.0000000 bulk dielectric constant

 Exchange correlation treatment:
   GGA     =    --    GGA type
   LEXCH   =     8    internal setting for exchange type
   VOSKOWN=      0    Vosko Wilk Nusair interpolation
   LHFCALC =     F    Hartree Fock is set to
   LHFONE  =     F    Hartree Fock one center treatment
   AEXX    =    0.0000 exact exchange contribution

 Linear response parameters
   LEPSILON=     F    determine dielectric tensor
   LRPA    =     F    only Hartree local field effects (RPA)
   LNABLA  =     F    use nabla operator in PAW spheres
   LVEL    =     F    velocity operator in full k-point grid
   LINTERFAST=   F  fast interpolation
   KINTER  =     0    interpolate to denser k-point grid
   CSHIFT  =0.1000    complex shift for real part using Kramers Kronig
   OMEGAMAX=  -1.0    maximum frequency
   DEG_THRESHOLD= 0.2000000E-02 threshold for treating states as degnerate
   RTIME   =   -0.100 relaxation time in fs
  (WPLASMAI=    0.000 imaginary part of plasma frequency in eV, 0.658/RTIME)
   DFIELD  = 0.0000000 0.0000000 0.0000000 field for delta impulse in time
 
 Orbital magnetization related:
   ORBITALMAG=     F  switch on orbital magnetization
   LCHIMAG   =     F  perturbation theory with respect to B field
   DQ        =  0.001000  dq finite difference perturbation B field
   LLRAUG    =     F  two centre corrections for induced B field



--------------------------------------------------------------------------------------------------------


 Static calculation
 charge density and potential will be updated during run
 non-spin polarized calculation
 Conjugate gradient for all bands (Freysoldt, et al. PRB 79, 241103 (2009))
 preconditioned conjugated gradient                                        
 perform sub-space diagonalisation
    before iterative eigenvector-optimisation
 modified Broyden-mixing scheme, WC =      100.0
 initial mixing is a Kerker type mixing with AMIX =  0.4000 and BMIX =      1.0000
 Hartree-type preconditioning will be used
 using additional bands           60
 reciprocal scheme for non local part
 use partial core corrections
 no Harris-corrections to forces 
 use gradient corrections 
 use of overlap-Matrix (Vanderbilt PP)
 Gauss-broadening in eV      SIGMA  =   0.01


--------------------------------------------------------------------------------------------------------


  energy-cutoff  :     1000.00
  volume of cell :     3288.85
      direct lattice vectors                 reciprocal lattice vectors
    12.325000000  0.000000000  0.000000000     0.081135903  0.046843835  0.000000000
    -6.162500000 10.673763102  0.000000000     0.000000000  0.093687670  0.000000000
     0.000000000  0.000000000 25.000000000     0.000000000  0.000000000  0.040000000

  length of vectors
    12.325000000 12.325000000 25.000000000     0.093687670  0.093687670  0.040000000


 
 k-points in units of 2pi/SCALE and weight: auto                                    
   0.00000000  0.00000000  0.00000000       1.000
 
 k-points in reciprocal lattice and weights: auto                                    
   0.00000000  0.00000000  0.00000000       1.000
 
 position of ions in fractional coordinates (direct lattice) 
   0.97245084  0.00032082  0.00056671
   0.03911838  0.13365950  0.00044017
   0.17244363  0.00029545  0.00049963
   0.23909628  0.13364792  0.00025647
   0.97245206  0.20032201  0.00048522
   0.03912836  0.33364377  0.00044415
   0.17245176  0.20035455  0.00021917
   0.23912436  0.33366572  0.00007226
   0.37246557  0.00032440  0.00045391
   0.43913747  0.13361994  0.00025834
   0.97244982  0.40030936  0.00054761
   0.03912498  0.53363679  0.00057341
   0.37241618  0.40032948  0.00000000
   0.43909960  0.53363898  0.00023241
   0.57244368  0.00031213  0.00055958
   0.63911021  0.13363175  0.00054727
   0.97245270  0.60030565  0.00064029
   0.03912449  0.73364036  0.00065451
   0.57243347  0.60030624  0.00040289
   0.63911189  0.73364188  0.00052791
   0.17245463  0.40031823  0.00028904
   0.23912018  0.53363655  0.00037851
   0.37245975  0.20029599  0.00008900
   0.43910710  0.33367342  0.00005576
   0.17245216  0.60031151  0.00052434
   0.23912337  0.73363857  0.00057513
   0.57243108  0.20028917  0.00041330
   0.63911277  0.33361863  0.00046238
   0.37243981  0.60030802  0.00036284
   0.43911609  0.73363786  0.00049419
   0.57246936  0.40032050  0.00033992
   0.63911941  0.53365087  0.00045961
   0.77244572  0.00031543  0.00059616
   0.83911628  0.13364020  0.00057531
   0.77244051  0.20030743  0.00058103
   0.83912024  0.33363573  0.00058547
   0.77244632  0.40029837  0.00058298
   0.83911898  0.53363396  0.00062110
   0.77245614  0.60030817  0.00059571
   0.83911503  0.73364318  0.00063151
   0.97245531  0.80030558  0.00065223
   0.03911471  0.93364329  0.00059805
   0.17245797  0.80031221  0.00062337
   0.23913455  0.93364719  0.00054485
   0.37245140  0.80031667  0.00055140
   0.43912449  0.93364477  0.00054143
   0.57244110  0.80031005  0.00053453
   0.63911507  0.93363899  0.00058764
   0.77244510  0.80031319  0.00060206
   0.83911661  0.93364434  0.00060683
   0.37302101  0.25122688  0.11892071
   0.42087980  0.18931315  0.12149759
   0.32515698  0.31316719  0.11654252
 
 position of ions in cartesian coordinates  (Angst):
  11.98347958  0.00342433  0.01416777
  -0.34154264  1.42664989  0.01100432
   2.12354700  0.00315355  0.01249070
   2.12325634  1.42652621  0.00641170
  10.75098721  2.13818970  0.01213047
  -1.57382270  3.56123457  0.01110375
   0.89078307  2.13853702  0.00547917
   0.89099273  3.56146885  0.00180651
   4.58863896  0.00346260  0.01134782
   4.58893648  1.42622757  0.00645846
   9.51853763  4.27280730  0.01369027
  -2.80632132  5.69591267  0.01433526
   2.12299894  4.27302204  0.00000000
   2.12335237  5.69593607  0.00581036
   7.05344483  0.00333155  0.01398950
   7.05352764  1.42635365  0.01368187
   8.28609598  6.40752033  0.01600723
  -4.03884931  7.83070339  0.01636283
   3.35585531  6.40752662  0.01007237
   3.35598594  7.83071962  0.01319763
  -0.34145776  4.27290193  0.00722612
  -0.34137895  5.69591010  0.00946273
   3.35624236  2.13791198  0.00222492
   3.35573251  3.56155103  0.00139405
  -1.57394684  6.40758280  0.01310850
  -1.57385216  7.83068434  0.01437823
   5.82093107  2.13783916  0.01033241
   5.82114012  3.56096622  0.01155939
   0.89092245  6.40754561  0.00907111
   0.89106251  7.83067670  0.01235474
   4.58870974  4.27292622  0.00849795
   4.58852320  5.69606300  0.01149026
   9.51844972  0.00336679  0.01490402
   9.51855036  1.42644387  0.01438264
   8.28593477  2.13803408  0.01452582
   8.28612680  3.56114872  0.01463668
   7.05356221  4.27268994  0.01457444
   7.05362213  5.69588251  0.01552751
   5.82112285  6.40754723  0.01489279
   5.82101669  7.83073350  0.01578780
   7.05362858  8.54227219  0.01630582
  -5.27148792  9.96548729  0.01495127
  -2.80637951  8.54234295  0.01558431
  -2.80626749  9.96552896  0.01362126
  -0.34148805  8.54239058  0.01378498
  -0.34137657  9.96550309  0.01353576
   2.12342586  8.54231992  0.01336337
   2.12354296  9.96544135  0.01469111
   4.58845581  8.54235337  0.01505154
   4.58852904  9.96549848  0.01517076
   3.04929830  2.68153618  2.97301779
   4.02070129  2.02068374  3.03743965
   2.07766701  3.34267235  2.91356292
 


--------------------------------------------------------------------------------------------------------


 k-point   1 :   0.0000 0.0000 0.0000  plane waves:  236157

 maximum and minimum number of plane-waves per node :    236157   236157

 maximum number of plane-waves:    236157
 maximum index in each direction: 
   IXMAX=   31   IYMAX=   31   IZMAX=   64
   IXMIN=  -31   IYMIN=  -31   IZMIN=  -64


 serial   3D FFT for wavefunctions
 parallel 3D FFT for charge:
    minimum data exchange during FFTs selected (reduces bandwidth)


 total amount of memory used by VASP MPI-rank0   698619. kBytes
=======================================================================

   base      :      30000. kBytes
   nonl-proj :     230539. kBytes
   fftplans  :      40716. kBytes
   grid      :     363125. kBytes
   one-center:        162. kBytes
   wavefun   :      34077. kBytes
 
     INWAV:  cpu time    0.0000: real time    0.0000
 Broyden mixing: mesh for mixing (old mesh)
   NGX = 63   NGY = 63   NGZ =129
  (NGX  =256   NGY  =256   NGZ  =540)
  gives a total of 512001 points

 initial charge density was supplied:
 charge density of overlapping atoms calculated
 number of electron     216.0000000 magnetization 
 keeping initial charge density in first step


--------------------------------------------------------------------------------------------------------


 Maximum index for augmentation-charges          471 (set IRDMAX)


--------------------------------------------------------------------------------------------------------


 First call to EWALD:  gamma=   0.119
 Maximum number of real-space cells 4x 4x 2
 Maximum number of reciprocal cells 2x 2x 4

    FEWALD:  cpu time    0.0030: real time    0.0030


--------------------------------------- Iteration      1(   1)  ---------------------------------------


    POTLOK:  cpu time    1.7148: real time    1.7270
    SETDIJ:  cpu time    0.1904: real time    0.1911
    TRIAL :  cpu time   27.4261: real time   27.6834
    CORREC:  cpu time    0.0005: real time    0.0007
    --------------------------------------------
      LOOP:  cpu time   29.3400: real time   29.6369

 eigenvalue-minimisations  :   336
 total energy-change (2. order) : 0.2559259E+04  (-0.1080010E+05)
 number of electron     216.0000000 magnetization 
 augmentation part      216.0000000 magnetization 

 Free energy of the ion-electron system (eV)
  ---------------------------------------------------
  alpha Z        PSCENC =        47.94900195
  Ewald energy   TEWEN  =     47831.94723089
  -Hartree energ DENC   =    -53900.18129770
  -exchange      EXHF   =         0.00000000
  -V(xc)+E(xc)   XCENC  =       605.39217656
  PAW double counting   =      6340.10990386    -6200.63067283
  entropy T*S    EENTRO =        -0.00000034
  eigenvalues    EBANDS =      -534.85114702
  atomic energy  EATOM  =      8369.52358910
  ---------------------------------------------------
  free energy    TOTEN  =      2559.25878447 eV

  energy without entropy =     2559.25878481  energy(sigma->0) =     2559.25878464


--------------------------------------------------------------------------------------------------------




--------------------------------------- Iteration      1(   2)  ---------------------------------------


    TRIAL :  cpu time   44.7809: real time   45.1270
    CORREC:  cpu time    0.0001: real time    0.0001
    --------------------------------------------
      LOOP:  cpu time   44.8325: real time   45.1858

 eigenvalue-minimisations  :   672
 total energy-change (2. order) :-0.2541016E+04  (-0.2415284E+04)
 number of electron     216.0000000 magnetization 
 augmentation part      216.0000000 magnetization 

 Free energy of the ion-electron system (eV)
  ---------------------------------------------------
  alpha Z        PSCENC =        47.94900195
  Ewald energy   TEWEN  =     47831.94723089
  -Hartree energ DENC   =    -53900.18129770
  -exchange      EXHF   =         0.00000000
  -V(xc)+E(xc)   XCENC  =       605.39217656
  PAW double counting   =      6340.10990386    -6200.63067283
  entropy T*S    EENTRO =        -0.00000000
  eigenvalues    EBANDS =     -3075.86764571
  atomic energy  EATOM  =      8369.52358910
  ---------------------------------------------------
  free energy    TOTEN  =        18.24228612 eV

  energy without entropy =       18.24228612  energy(sigma->0) =       18.24228612


--------------------------------------------------------------------------------------------------------




--------------------------------------- Iteration      1(   3)  ---------------------------------------


    TRIAL :  cpu time   30.2317: real time   30.5162
    CORREC:  cpu time    0.0001: real time    0.0002
    --------------------------------------------
      LOOP:  cpu time   30.2500: real time   30.5469

 eigenvalue-minimisations  :   392
 total energy-change (2. order) :-0.5943333E+03  (-0.5913602E+03)
 number of electron     216.0000000 magnetization 
 augmentation part      216.0000000 magnetization 

 Free energy of the ion-electron system (eV)
  ---------------------------------------------------
  alpha Z        PSCENC =        47.94900195
  Ewald energy   TEWEN  =     47831.94723089
  -Hartree energ DENC   =    -53900.18129770
  -exchange      EXHF   =         0.00000000
  -V(xc)+E(xc)   XCENC  =       605.39217656
  PAW double counting   =      6340.10990386    -6200.63067283
  entropy T*S    EENTRO =        -0.00000000
  eigenvalues    EBANDS =     -3670.20098510
  atomic energy  EATOM  =      8369.52358910
  ---------------------------------------------------
  free energy    TOTEN  =      -576.09105326 eV

  energy without entropy =     -576.09105326  energy(sigma->0) =     -576.09105326


--------------------------------------------------------------------------------------------------------




--------------------------------------- Iteration      1(   4)  ---------------------------------------


    TRIAL :  cpu time   33.1680: real time   33.4294
    CORREC:  cpu time    0.0001: real time    0.0001
    --------------------------------------------
      LOOP:  cpu time   33.2088: real time   33.4705

 eigenvalue-minimisations  :   448
 total energy-change (2. order) :-0.3048116E+02  (-0.3024140E+02)
 number of electron     216.0000000 magnetization 
 augmentation part      216.0000000 magnetization 

 Free energy of the ion-electron system (eV)
  ---------------------------------------------------
  alpha Z        PSCENC =        47.94900195
  Ewald energy   TEWEN  =     47831.94723089
  -Hartree energ DENC   =    -53900.18129770
  -exchange      EXHF   =         0.00000000
  -V(xc)+E(xc)   XCENC  =       605.39217656
  PAW double counting   =      6340.10990386    -6200.63067283
  entropy T*S    EENTRO =        -0.00000000
  eigenvalues    EBANDS =     -3700.68214702
  atomic energy  EATOM  =      8369.52358910
  ---------------------------------------------------
  free energy    TOTEN  =      -606.57221518 eV

  energy without entropy =     -606.57221518  energy(sigma->0) =     -606.57221518


--------------------------------------------------------------------------------------------------------




--------------------------------------- Iteration      1(   5)  ---------------------------------------


    TRIAL :  cpu time   33.2079: real time   33.4507
    CORREC:  cpu time    0.0001: real time    0.0001
    CHARGE:  cpu time    2.9673: real time    2.9881
    --------------------------------------------
      LOOP:  cpu time   36.2174: real time   36.4823

 eigenvalue-minimisations  :   448
 total energy-change (2. order) :-0.1029585E+01  (-0.1025428E+01)
 number of electron     216.0000000 magnetization 
 augmentation part       -0.4503575 magnetization 

 Free energy of the ion-electron system (eV)
  ---------------------------------------------------
  alpha Z        PSCENC =        47.94900195
  Ewald energy   TEWEN  =     47831.94723089
  -Hartree energ DENC   =    -53900.18129770
  -exchange      EXHF   =         0.00000000
  -V(xc)+E(xc)   XCENC  =       605.39217656
  PAW double counting   =      6340.10990386    -6200.63067283
  entropy T*S    EENTRO =        -0.00000000
  eigenvalues    EBANDS =     -3701.71173249
  atomic energy  EATOM  =      8369.52358910
  ---------------------------------------------------
  free energy    TOTEN  =      -607.60180066 eV

  energy without entropy =     -607.60180066  energy(sigma->0) =     -607.60180066


--------------------------------------------------------------------------------------------------------




--------------------------------------- Iteration      1(   6)  ---------------------------------------


    POTLOK:  cpu time    1.6782: real time    1.6876
    SETDIJ:  cpu time    0.2087: real time    0.2095
    TRIAL :  cpu time   19.6584: real time   19.8261
    CORREC:  cpu time    8.8428: real time    8.9119
    CHARGE:  cpu time    2.9604: real time    2.9841
    --------------------------------------------
      LOOP:  cpu time   33.4024: real time   33.6755

 eigenvalue-minimisations  :     0
 total energy-change (2. order) : 0.9765990E+02  (-0.1125306E+02)
 number of electron     216.0000000 magnetization 
 augmentation part       -0.5081968 magnetization 

 Free energy of the ion-electron system (eV)
  ---------------------------------------------------
  alpha Z        PSCENC =        47.94900195
  Ewald energy   TEWEN  =     47831.94723089
  -Hartree energ DENC   =    -55244.26936383
  -exchange      EXHF   =         0.00000000
  -V(xc)+E(xc)   XCENC  =       676.62269853
  PAW double counting   =    119520.17756893  -119380.56560514
  entropy T*S    EENTRO =        -0.00000000
  eigenvalues    EBANDS =     -2331.32701773
  atomic energy  EATOM  =      8369.52358910
  ---------------------------------------------------
  free energy    TOTEN  =      -509.94189728 eV

  energy without entropy =     -509.94189728  energy(sigma->0) =     -509.94189728


--------------------------------------------------------------------------------------------------------




--------------------------------------- Iteration      1(   7)  ---------------------------------------


    POTLOK:  cpu time    1.6774: real time    1.6886
    SETDIJ:  cpu time    0.2039: real time    0.2048
    TRIAL :  cpu time   19.6315: real time   19.8235
    CORREC:  cpu time    8.8472: real time    8.9178
    CHARGE:  cpu time    2.9638: real time    2.9874
    --------------------------------------------
      LOOP:  cpu time   33.3603: real time   33.6650

 eigenvalue-minimisations  :     0
 total energy-change (2. order) :-0.1126273E+02  (-0.1409429E+01)
 number of electron     216.0000000 magnetization 
 augmentation part       -0.5401083 magnetization 

 Free energy of the ion-electron system (eV)
  ---------------------------------------------------
  alpha Z        PSCENC =        47.94900195
  Ewald energy   TEWEN  =     47831.94723089
  -Hartree energ DENC   =    -54828.46942954
  -exchange      EXHF   =         0.00000000
  -V(xc)+E(xc)   XCENC  =       659.05862337
  PAW double counting   =    138936.81527246  -138795.47836105
  entropy T*S    EENTRO =        -0.00000000
  eigenvalues    EBANDS =     -2742.55055404
  atomic energy  EATOM  =      8369.52358910
  ---------------------------------------------------
  free energy    TOTEN  =      -521.20462685 eV

  energy without entropy =     -521.20462685  energy(sigma->0) =     -521.20462685


--------------------------------------------------------------------------------------------------------




--------------------------------------- Iteration      1(   8)  ---------------------------------------


    POTLOK:  cpu time    1.6788: real time    1.6904
    SETDIJ:  cpu time    0.1963: real time    0.1972
    TRIAL :  cpu time   19.6480: real time   19.8027
    CORREC:  cpu time    8.8621: real time    8.9241
    CHARGE:  cpu time    2.9633: real time    2.9847
    --------------------------------------------
      LOOP:  cpu time   33.4010: real time   33.6529

 eigenvalue-minimisations  :     0
 total energy-change (2. order) :-0.1410073E+01  (-0.4437457E+00)
 number of electron     216.0000000 magnetization 
 augmentation part       -0.5416335 magnetization 

 Free energy of the ion-electron system (eV)
  ---------------------------------------------------
  alpha Z        PSCENC =        47.94900195
  Ewald energy   TEWEN  =     47831.94723089
  -Hartree energ DENC   =    -54805.22719101
  -exchange      EXHF   =         0.00000000
  -V(xc)+E(xc)   XCENC  =       658.09950311
  PAW double counting   =    148743.19376697  -148601.73618613
  entropy T*S    EENTRO =        -0.00000000
  eigenvalues    EBANDS =     -2766.36441513
  atomic energy  EATOM  =      8369.52358910
  ---------------------------------------------------
  free energy    TOTEN  =      -522.61470025 eV

  energy without entropy =     -522.61470025  energy(sigma->0) =     -522.61470025


--------------------------------------------------------------------------------------------------------




--------------------------------------- Iteration      1(   9)  ---------------------------------------


    POTLOK:  cpu time    1.6760: real time    1.6857
    SETDIJ:  cpu time    0.2052: real time    0.2060
    TRIAL :  cpu time   19.6401: real time   19.8137
    CORREC:  cpu time    8.8408: real time    8.8998
    CHARGE:  cpu time    2.9603: real time    2.9805
    --------------------------------------------
      LOOP:  cpu time   33.3896: real time   33.6565

 eigenvalue-minimisations  :     0
 total energy-change (2. order) :-0.4434727E+00  (-0.1729463E+00)
 number of electron     216.0000000 magnetization 
 augmentation part       -0.5387146 magnetization 

 Free energy of the ion-electron system (eV)
  ---------------------------------------------------
  alpha Z        PSCENC =        47.94900195
  Ewald energy   TEWEN  =     47831.94723089
  -Hartree energ DENC   =    -54811.43613235
  -exchange      EXHF   =         0.00000000
  -V(xc)+E(xc)   XCENC  =       658.07121851
  PAW double counting   =    156425.78232151  -156284.25746027
  entropy T*S    EENTRO =        -0.00000000
  eigenvalues    EBANDS =     -2760.63794226
  atomic energy  EATOM  =      8369.52358910
  ---------------------------------------------------
  free energy    TOTEN  =      -523.05817292 eV

  energy without entropy =     -523.05817292  energy(sigma->0) =     -523.05817292


--------------------------------------------------------------------------------------------------------




--------------------------------------- Iteration      1(  10)  ---------------------------------------


    POTLOK:  cpu time    1.6767: real time    1.6882
    SETDIJ:  cpu time    0.2002: real time    0.2009
    TRIAL :  cpu time   19.6407: real time   19.8109
    CORREC:  cpu time    8.8539: real time    8.9118
    CHARGE:  cpu time    2.9647: real time    2.9851
    --------------------------------------------
      LOOP:  cpu time   33.3862: real time   33.6496

 eigenvalue-minimisations  :     0
 total energy-change (2. order) :-0.1728235E+00  (-0.7574537E-01)
 number of electron     216.0000000 magnetization 
 augmentation part       -0.5340620 magnetization 

 Free energy of the ion-electron system (eV)
  ---------------------------------------------------
  alpha Z        PSCENC =        47.94900195
  Ewald energy   TEWEN  =     47831.94723089
  -Hartree energ DENC   =    -54810.01499105
  -exchange      EXHF   =         0.00000000
  -V(xc)+E(xc)   XCENC  =       657.99237098
  PAW double counting   =    160066.03025225  -159924.46316903
  entropy T*S    EENTRO =        -0.00000000
  eigenvalues    EBANDS =     -2762.19528150
  atomic energy  EATOM  =      8369.52358910
  ---------------------------------------------------
  free energy    TOTEN  =      -523.23099641 eV

  energy without entropy =     -523.23099641  energy(sigma->0) =     -523.23099641


--------------------------------------------------------------------------------------------------------




--------------------------------------- Iteration      1(  11)  ---------------------------------------


    POTLOK:  cpu time    1.6802: real time    1.6920
    SETDIJ:  cpu time    0.2058: real time    0.2066
    TRIAL :  cpu time   19.6461: real time   19.8154
    CORREC:  cpu time    8.8338: real time    8.9042
    CHARGE:  cpu time    2.9593: real time    2.9812
    --------------------------------------------
      LOOP:  cpu time   33.4013: real time   33.6863

 eigenvalue-minimisations  :     0
 total energy-change (2. order) :-0.7564930E-01  (-0.2939549E-01)
 number of electron     216.0000000 magnetization 
 augmentation part       -0.5308973 magnetization 

 Free energy of the ion-electron system (eV)
  ---------------------------------------------------
  alpha Z        PSCENC =        47.94900195
  Ewald energy   TEWEN  =     47831.94723089
  -Hartree energ DENC   =    -54804.39105747
  -exchange      EXHF   =         0.00000000
  -V(xc)+E(xc)   XCENC  =       657.93149253
  PAW double counting   =    160718.55460666  -160577.00534742
  entropy T*S    EENTRO =        -0.00000000
  eigenvalues    EBANDS =     -2767.81616195
  atomic energy  EATOM  =      8369.52358910
  ---------------------------------------------------
  free energy    TOTEN  =      -523.30664571 eV

  energy without entropy =     -523.30664571  energy(sigma->0) =     -523.30664571


--------------------------------------------------------------------------------------------------------




--------------------------------------- Iteration      1(  12)  ---------------------------------------


    POTLOK:  cpu time    1.6758: real time    1.6855
    SETDIJ:  cpu time    0.2083: real time    0.2091
    TRIAL :  cpu time   19.6661: real time   19.8155
    CORREC:  cpu time    8.8435: real time    8.9087
    CHARGE:  cpu time    2.9635: real time    2.9840
    --------------------------------------------
      LOOP:  cpu time   33.4421: real time   33.6924

 eigenvalue-minimisations  :     0
 total energy-change (2. order) :-0.2935431E-01  (-0.9237315E-02)
 number of electron     216.0000000 magnetization 
 augmentation part       -0.5307435 magnetization 

 Free energy of the ion-electron system (eV)
  ---------------------------------------------------
  alpha Z        PSCENC =        47.94900195
  Ewald energy   TEWEN  =     47831.94723089
  -Hartree energ DENC   =    -54800.09612298
  -exchange      EXHF   =         0.00000000
  -V(xc)+E(xc)   XCENC  =       657.86894651
  PAW double counting   =    160157.42749917  -160015.90333097
  entropy T*S    EENTRO =        -0.00000000
  eigenvalues    EBANDS =     -2772.05281370
  atomic energy  EATOM  =      8369.52358910
  ---------------------------------------------------
  free energy    TOTEN  =      -523.33600002 eV

  energy without entropy =     -523.33600002  energy(sigma->0) =     -523.33600002


--------------------------------------------------------------------------------------------------------




--------------------------------------- Iteration      1(  13)  ---------------------------------------


    POTLOK:  cpu time    1.6792: real time    1.6889
    SETDIJ:  cpu time    0.1982: real time    0.1990
    TRIAL :  cpu time   19.6813: real time   19.8281
    CORREC:  cpu time    8.8334: real time    8.8983
    CHARGE:  cpu time    2.9606: real time    2.9869
    --------------------------------------------
      LOOP:  cpu time   33.3828: real time   33.6443

 eigenvalue-minimisations  :     0
 total energy-change (2. order) :-0.9219418E-02  (-0.2570804E-02)
 number of electron     216.0000000 magnetization 
 augmentation part       -0.5312283 magnetization 

 Free energy of the ion-electron system (eV)
  ---------------------------------------------------
  alpha Z        PSCENC =        47.94900195
  Ewald energy   TEWEN  =     47831.94723089
  -Hartree energ DENC   =    -54798.68895734
  -exchange      EXHF   =         0.00000000
  -V(xc)+E(xc)   XCENC  =       657.81855144
  PAW double counting   =    159502.99308036  -159361.47272077
  entropy T*S    EENTRO =        -0.00000000
  eigenvalues    EBANDS =     -2773.41499507
  atomic energy  EATOM  =      8369.52358910
  ---------------------------------------------------
  free energy    TOTEN  =      -523.34521944 eV

  energy without entropy =     -523.34521944  energy(sigma->0) =     -523.34521944


--------------------------------------------------------------------------------------------------------




--------------------------------------- Iteration      1(  14)  ---------------------------------------


    POTLOK:  cpu time    1.6762: real time    1.6857
    SETDIJ:  cpu time    0.2085: real time    0.2092
    TRIAL :  cpu time   19.7118: real time   19.8640
    CORREC:  cpu time    8.8686: real time    8.9285
    CHARGE:  cpu time    2.9632: real time    2.9844
    --------------------------------------------
      LOOP:  cpu time   33.4852: real time   33.7397

 eigenvalue-minimisations  :     0
 total energy-change (2. order) :-0.2560751E-02  (-0.7010845E-03)
 number of electron     216.0000000 magnetization 
 augmentation part       -0.5314842 magnetization 

 Free energy of the ion-electron system (eV)
  ---------------------------------------------------
  alpha Z        PSCENC =        47.94900195
  Ewald energy   TEWEN  =     47831.94723089
  -Hartree energ DENC   =    -54798.76142538
  -exchange      EXHF   =         0.00000000
  -V(xc)+E(xc)   XCENC  =       657.80761294
  PAW double counting   =    159117.93466567  -158976.41313134
  entropy T*S    EENTRO =        -0.00000000
  eigenvalues    EBANDS =     -2773.33532403
  atomic energy  EATOM  =      8369.52358910
  ---------------------------------------------------
  free energy    TOTEN  =      -523.34778019 eV

  energy without entropy =     -523.34778019  energy(sigma->0) =     -523.34778019


--------------------------------------------------------------------------------------------------------




--------------------------------------- Iteration      1(  15)  ---------------------------------------


    POTLOK:  cpu time    1.6746: real time    1.6844
    SETDIJ:  cpu time    0.2057: real time    0.2065
    TRIAL :  cpu time   19.6598: real time   19.8226
    CORREC:  cpu time    8.8449: real time    8.9147
    CHARGE:  cpu time    2.9569: real time    2.9807
    --------------------------------------------
      LOOP:  cpu time   33.4019: real time   33.6911

 eigenvalue-minimisations  :     0
 total energy-change (2. order) :-0.6966880E-03  (-0.1973823E-03)
 number of electron     216.0000000 magnetization 
 augmentation part       -0.5316602 magnetization 

 Free energy of the ion-electron system (eV)
  ---------------------------------------------------
  alpha Z        PSCENC =        47.94900195
  Ewald energy   TEWEN  =     47831.94723089
  -Hartree energ DENC   =    -54798.72084681
  -exchange      EXHF   =         0.00000000
  -V(xc)+E(xc)   XCENC  =       657.80389857
  PAW double counting   =    158925.46425212  -158783.94183806
  entropy T*S    EENTRO =        -0.00000000
  eigenvalues    EBANDS =     -2773.37376464
  atomic energy  EATOM  =      8369.52358910
  ---------------------------------------------------
  free energy    TOTEN  =      -523.34847688 eV

  energy without entropy =     -523.34847688  energy(sigma->0) =     -523.34847688


--------------------------------------------------------------------------------------------------------




--------------------------------------- Iteration      1(  16)  ---------------------------------------


    POTLOK:  cpu time    1.6773: real time    1.6885
    SETDIJ:  cpu time    0.2002: real time    0.2011
    TRIAL :  cpu time   19.6478: real time   19.8202
    CORREC:  cpu time    8.8395: real time    8.9064
    CHARGE:  cpu time    2.9608: real time    2.9835
    --------------------------------------------
      LOOP:  cpu time   33.3715: real time   33.6568

 eigenvalue-minimisations  :     0
 total energy-change (2. order) :-0.1955393E-03  (-0.6408707E-04)
 number of electron     216.0000000 magnetization 
 augmentation part       -0.5317237 magnetization 

 Free energy of the ion-electron system (eV)
  ---------------------------------------------------
  alpha Z        PSCENC =        47.94900195
  Ewald energy   TEWEN  =     47831.94723089
  -Hartree energ DENC   =    -54798.61752159
  -exchange      EXHF   =         0.00000000
  -V(xc)+E(xc)   XCENC  =       657.79806764
  PAW double counting   =    158817.65023028  -158676.12621002
  entropy T*S    EENTRO =        -0.00000000
  eigenvalues    EBANDS =     -2773.47306067
  atomic energy  EATOM  =      8369.52358910
  ---------------------------------------------------
  free energy    TOTEN  =      -523.34867242 eV

  energy without entropy =     -523.34867242  energy(sigma->0) =     -523.34867242


--------------------------------------------------------------------------------------------------------




--------------------------------------- Iteration      1(  17)  ---------------------------------------


    POTLOK:  cpu time    1.6796: real time    1.6894
    SETDIJ:  cpu time    0.2020: real time    0.2027
    TRIAL :  cpu time   19.6726: real time   19.8272
    CORREC:  cpu time    8.8613: real time    8.9232
    CHARGE:  cpu time    2.9606: real time    2.9818
    --------------------------------------------
      LOOP:  cpu time   33.4120: real time   33.6644

 eigenvalue-minimisations  :     0
 total energy-change (2. order) :-0.6299428E-04  (-0.2352380E-04)
 number of electron     216.0000000 magnetization 
 augmentation part       -0.5317504 magnetization 

 Free energy of the ion-electron system (eV)
  ---------------------------------------------------
  alpha Z        PSCENC =        47.94900195
  Ewald energy   TEWEN  =     47831.94723089
  -Hartree energ DENC   =    -54798.76984150
  -exchange      EXHF   =         0.00000000
  -V(xc)+E(xc)   XCENC  =       657.80336457
  PAW double counting   =    158750.87487967  -158609.35067774
  entropy T*S    EENTRO =        -0.00000000
  eigenvalues    EBANDS =     -2773.32628236
  atomic energy  EATOM  =      8369.52358910
  ---------------------------------------------------
  free energy    TOTEN  =      -523.34873541 eV

  energy without entropy =     -523.34873541  energy(sigma->0) =     -523.34873541


--------------------------------------------------------------------------------------------------------




--------------------------------------- Iteration      1(  18)  ---------------------------------------


    POTLOK:  cpu time    1.6766: real time    1.6866
    SETDIJ:  cpu time    0.2063: real time    0.2069
    TRIAL :  cpu time   19.6581: real time   19.8127
    CORREC:  cpu time    8.8574: real time    8.9206
    CHARGE:  cpu time    2.9624: real time    2.9836
    --------------------------------------------
      LOOP:  cpu time   33.4296: real time   33.7183

 eigenvalue-minimisations  :     0
 total energy-change (2. order) :-0.2356546E-04  (-0.8489976E-05)
 number of electron     216.0000000 magnetization 
 augmentation part       -0.5317675 magnetization 

 Free energy of the ion-electron system (eV)
  ---------------------------------------------------
  alpha Z        PSCENC =        47.94900195
  Ewald energy   TEWEN  =     47831.94723089
  -Hartree energ DENC   =    -54798.84056878
  -exchange      EXHF   =         0.00000000
  -V(xc)+E(xc)   XCENC  =       657.80552846
  PAW double counting   =    158723.99650138  -158582.47203792
  entropy T*S    EENTRO =        -0.00000000
  eigenvalues    EBANDS =     -2773.25800408
  atomic energy  EATOM  =      8369.52358910
  ---------------------------------------------------
  free energy    TOTEN  =      -523.34875898 eV

  energy without entropy =     -523.34875898  energy(sigma->0) =     -523.34875898


--------------------------------------------------------------------------------------------------------




--------------------------------------- Iteration      1(  19)  ---------------------------------------


    POTLOK:  cpu time    1.6779: real time    1.6879
    SETDIJ:  cpu time    0.2071: real time    0.2079
    TRIAL :  cpu time   19.6587: real time   19.8089
    CORREC:  cpu time    8.8498: real time    8.9094
    CHARGE:  cpu time    2.9600: real time    2.9824
    --------------------------------------------
      LOOP:  cpu time   33.4423: real time   33.6903

 eigenvalue-minimisations  :     0
 total energy-change (2. order) :-0.8746341E-05  (-0.2959269E-05)
 number of electron     216.0000000 magnetization 
 augmentation part       -0.5317679 magnetization 

 Free energy of the ion-electron system (eV)
  ---------------------------------------------------
  alpha Z        PSCENC =        47.94900195
  Ewald energy   TEWEN  =     47831.94723089
  -Hartree energ DENC   =    -54798.84039552
  -exchange      EXHF   =         0.00000000
  -V(xc)+E(xc)   XCENC  =       657.80525344
  PAW double counting   =    158724.62952449  -158583.10480095
  entropy T*S    EENTRO =        -0.00000000
  eigenvalues    EBANDS =     -2773.25817113
  atomic energy  EATOM  =      8369.52358910
  ---------------------------------------------------
  free energy    TOTEN  =      -523.34876773 eV

  energy without entropy =     -523.34876773  energy(sigma->0) =     -523.34876773


--------------------------------------------------------------------------------------------------------




--------------------------------------- Iteration      1(  20)  ---------------------------------------


    POTLOK:  cpu time    1.6773: real time    1.6873
    SETDIJ:  cpu time    0.2063: real time    0.2071
    TRIAL :  cpu time   19.6709: real time   19.8181
    CORREC:  cpu time    8.8423: real time    8.9077
    CHARGE:  cpu time    2.9556: real time    2.9759
    --------------------------------------------
      LOOP:  cpu time   33.3836: real time   33.6644

 eigenvalue-minimisations  :     0
 total energy-change (2. order) :-0.3037596E-05  (-0.1015191E-05)
 number of electron     216.0000000 magnetization 
 augmentation part       -0.5317660 magnetization 

 Free energy of the ion-electron system (eV)
  ---------------------------------------------------
  alpha Z        PSCENC =        47.94900195
  Ewald energy   TEWEN  =     47831.94723089
  -Hartree energ DENC   =    -54798.85886448
  -exchange      EXHF   =         0.00000000
  -V(xc)+E(xc)   XCENC  =       657.80594056
  PAW double counting   =    158733.21791824  -158591.69322974
  entropy T*S    EENTRO =        -0.00000000
  eigenvalues    EBANDS =     -2773.24035728
  atomic energy  EATOM  =      8369.52358910
  ---------------------------------------------------
  free energy    TOTEN  =      -523.34877076 eV

  energy without entropy =     -523.34877076  energy(sigma->0) =     -523.34877076


--------------------------------------------------------------------------------------------------------




--------------------------------------- Iteration      1(  21)  ---------------------------------------


    POTLOK:  cpu time    1.6771: real time    1.6867
    SETDIJ:  cpu time    0.1994: real time    0.2002
    TRIAL :  cpu time   19.6802: real time   19.8242
    CORREC:  cpu time    8.8514: real time    8.9148
    CHARGE:  cpu time    2.9679: real time    2.9888
    --------------------------------------------
      LOOP:  cpu time   33.4134: real time   33.6544

 eigenvalue-minimisations  :     0
 total energy-change (2. order) :-0.1014065E-05  (-0.3933356E-06)
 number of electron     216.0000000 magnetization 
 augmentation part       -0.5317590 magnetization 

 Free energy of the ion-electron system (eV)
  ---------------------------------------------------
  alpha Z        PSCENC =        47.94900195
  Ewald energy   TEWEN  =     47831.94723089
  -Hartree energ DENC   =    -54798.86515581
  -exchange      EXHF   =         0.00000000
  -V(xc)+E(xc)   XCENC  =       657.80601013
  PAW double counting   =    158740.78705915  -158599.26239174
  entropy T*S    EENTRO =        -0.00000000
  eigenvalues    EBANDS =     -2773.23411545
  atomic energy  EATOM  =      8369.52358910
  ---------------------------------------------------
  free energy    TOTEN  =      -523.34877178 eV

  energy without entropy =     -523.34877178  energy(sigma->0) =     -523.34877178


--------------------------------------------------------------------------------------------------------




--------------------------------------- Iteration      1(  22)  ---------------------------------------


    POTLOK:  cpu time    1.6775: real time    1.6876
    SETDIJ:  cpu time    0.1995: real time    0.2002
    TRIAL :  cpu time   19.6480: real time   19.8029
    CORREC:  cpu time    8.8543: real time    8.9164
    CHARGE:  cpu time    2.9548: real time    2.9759
    --------------------------------------------
      LOOP:  cpu time   33.4035: real time   33.6593

 eigenvalue-minimisations  :     0
 total energy-change (2. order) :-0.3630412E-06  (-0.2267268E-06)
 number of electron     216.0000000 magnetization 
 augmentation part       -0.5317498 magnetization 

 Free energy of the ion-electron system (eV)
  ---------------------------------------------------
  alpha Z        PSCENC =        47.94900195
  Ewald energy   TEWEN  =     47831.94723089
  -Hartree energ DENC   =    -54798.86298321
  -exchange      EXHF   =         0.00000000
  -V(xc)+E(xc)   XCENC  =       657.80590705
  PAW double counting   =    158745.63765326  -158604.11303777
  entropy T*S    EENTRO =        -0.00000000
  eigenvalues    EBANDS =     -2773.23613343
  atomic energy  EATOM  =      8369.52358910
  ---------------------------------------------------
  free energy    TOTEN  =      -523.34877214 eV

  energy without entropy =     -523.34877214  energy(sigma->0) =     -523.34877214


--------------------------------------------------------------------------------------------------------




--------------------------------------- Iteration      1(  23)  ---------------------------------------


    POTLOK:  cpu time    1.6778: real time    1.6874
    SETDIJ:  cpu time    0.1997: real time    0.2005
    TRIAL :  cpu time   19.6927: real time   19.8581
    CORREC:  cpu time    8.8491: real time    8.9133
    CHARGE:  cpu time    2.9632: real time    2.9838
    --------------------------------------------
      LOOP:  cpu time   33.4286: real time   33.6922

 eigenvalue-minimisations  :     0
 total energy-change (2. order) :-0.1328590E-06  (-0.1347722E-06)
 number of electron     216.0000000 magnetization 
 augmentation part       -0.5317498 magnetization 

 Free energy of the ion-electron system (eV)
  ---------------------------------------------------
  alpha Z        PSCENC =        47.94900195
  Ewald energy   TEWEN  =     47831.94723089
  -Hartree energ DENC   =    -54798.86067884
  -exchange      EXHF   =         0.00000000
  -V(xc)+E(xc)   XCENC  =       657.80591557
  PAW double counting   =    158749.11229663  -158607.58775985
  entropy T*S    EENTRO =        -0.00000000
  eigenvalues    EBANDS =     -2773.23836772
  atomic energy  EATOM  =      8369.52358910
  ---------------------------------------------------
  free energy    TOTEN  =      -523.34877227 eV

  energy without entropy =     -523.34877227  energy(sigma->0) =     -523.34877227


--------------------------------------------------------------------------------------------------------




--------------------------------------- Iteration      1(  24)  ---------------------------------------


    POTLOK:  cpu time    1.6755: real time    1.6856
    SETDIJ:  cpu time    0.2010: real time    0.2018
    TRIAL :  cpu time   19.6731: real time   19.8271
    CORREC:  cpu time    8.8400: real time    8.9024
    CHARGE:  cpu time    2.9531: real time    2.9738
    --------------------------------------------
      LOOP:  cpu time   33.3887: real time   33.6369

 eigenvalue-minimisations  :     0
 total energy-change (2. order) : 0.5189213E-07  (-0.1764562E-06)
 number of electron     216.0000000 magnetization 
 augmentation part       -0.5317497 magnetization 

 Free energy of the ion-electron system (eV)
  ---------------------------------------------------
  alpha Z        PSCENC =        47.94900195
  Ewald energy   TEWEN  =     47831.94723089
  -Hartree energ DENC   =    -54798.85433482
  -exchange      EXHF   =         0.00000000
  -V(xc)+E(xc)   XCENC  =       657.80568038
  PAW double counting   =    158752.06542056  -158610.54088626
  entropy T*S    EENTRO =        -0.00000000
  eigenvalues    EBANDS =     -2773.24447403
  atomic energy  EATOM  =      8369.52358910
  ---------------------------------------------------
  free energy    TOTEN  =      -523.34877222 eV

  energy without entropy =     -523.34877222  energy(sigma->0) =     -523.34877222


--------------------------------------------------------------------------------------------------------




--------------------------------------- Iteration      1(  25)  ---------------------------------------


    POTLOK:  cpu time    1.6786: real time    1.6883
    SETDIJ:  cpu time    0.2013: real time    0.2020
    TRIAL :  cpu time   19.6648: real time   19.8101
    CORREC:  cpu time    8.8382: real time    8.9040
    CHARGE:  cpu time    2.9606: real time    2.9854
    --------------------------------------------
      LOOP:  cpu time   33.3896: real time   33.6519

 eigenvalue-minimisations  :     0
 total energy-change (2. order) :-0.3312016E-07  (-0.1291380E-06)
 number of electron     216.0000000 magnetization 
 augmentation part       -0.5317559 magnetization 

 Free energy of the ion-electron system (eV)
  ---------------------------------------------------
  alpha Z        PSCENC =        47.94900195
  Ewald energy   TEWEN  =     47831.94723089
  -Hartree energ DENC   =    -54798.86157757
  -exchange      EXHF   =         0.00000000
  -V(xc)+E(xc)   XCENC  =       657.80608991
  PAW double counting   =    158750.83478107  -158609.31028820
  entropy T*S    EENTRO =        -0.00000000
  eigenvalues    EBANDS =     -2773.23759940
  atomic energy  EATOM  =      8369.52358910
  ---------------------------------------------------
  free energy    TOTEN  =      -523.34877225 eV

  energy without entropy =     -523.34877225  energy(sigma->0) =     -523.34877225


--------------------------------------------------------------------------------------------------------




--------------------------------------- Iteration      1(  26)  ---------------------------------------


    POTLOK:  cpu time    1.6744: real time    1.6863
    SETDIJ:  cpu time    0.1985: real time    0.1993
    TRIAL :  cpu time   19.6280: real time   19.8157
    CORREC:  cpu time    8.7150: real time    8.7862
    CHARGE:  cpu time    2.9508: real time    2.9785
    --------------------------------------------
      LOOP:  cpu time   33.2355: real time   33.5393

 eigenvalue-minimisations  :     0
 total energy-change (2. order) :-0.1048029E-06  ( 0.8272237E-08)
 number of electron     216.0000000 magnetization 
 augmentation part       -0.5317543 magnetization 

 Free energy of the ion-electron system (eV)
  ---------------------------------------------------
  alpha Z        PSCENC =        47.94900195
  Ewald energy   TEWEN  =     47831.94723089
  -Hartree energ DENC   =    -54798.85445315
  -exchange      EXHF   =         0.00000000
  -V(xc)+E(xc)   XCENC  =       657.80566492
  PAW double counting   =    158750.39188982  -158608.86731221
  entropy T*S    EENTRO =        -0.00000000
  eigenvalues    EBANDS =     -2773.24438369
  atomic energy  EATOM  =      8369.52358910
  ---------------------------------------------------
  free energy    TOTEN  =      -523.34877236 eV

  energy without entropy =     -523.34877236  energy(sigma->0) =     -523.34877236


--------------------------------------------------------------------------------------------------------




--------------------------------------- Iteration      1(  27)  ---------------------------------------


    POTLOK:  cpu time    1.6757: real time    1.6854
    SETDIJ:  cpu time    0.2008: real time    0.2015
    TRIAL :  cpu time   19.6782: real time   19.8246
    CORREC:  cpu time    8.7291: real time    8.7883
    EDDIAG:  cpu time    4.0609: real time    4.0982
    CHARGE:  cpu time    2.9663: real time    2.9868
    --------------------------------------------
      LOOP:  cpu time   37.3768: real time   37.6546

 eigenvalue-minimisations  :     0
 total energy-change (2. order) :-0.2767774E-07  ( 0.3030191E-09)
 number of electron     216.0000000 magnetization 
 augmentation part       -0.5317549 magnetization 

 Free energy of the ion-electron system (eV)
  ---------------------------------------------------
  alpha Z        PSCENC =        47.94900195
  Ewald energy   TEWEN  =     47831.94723089
  -Hartree energ DENC   =    -54798.85813501
  -exchange      EXHF   =         0.00000000
  -V(xc)+E(xc)   XCENC  =       657.80585310
  PAW double counting   =    158749.86055970  -158608.33600948
  entropy T*S    EENTRO =        -0.00000000
  eigenvalues    EBANDS =     -2773.24086265
  atomic energy  EATOM  =      8369.52358910
  ---------------------------------------------------
  free energy    TOTEN  =      -523.34877239 eV

  energy without entropy =     -523.34877239  energy(sigma->0) =     -523.34877239


--------------------------------------------------------------------------------------------------------


  average scaling for gradient   0.7833


 average (electrostatic) potential at core
  the test charge radii are     0.5770  0.5955
  (the norm of the test charge is              1.0000)
       1 -87.9867       2 -87.9806       3 -87.9942       4 -88.0027       5 -87.9772
       6 -87.9732       7 -87.9862       8 -87.9649       9 -87.9752      10 -87.9769
      11 -87.9768      12 -87.9823      13 -87.9745      14 -87.9732      15 -87.9740
      16 -87.9733      17 -87.9803      18 -87.9821      19 -87.9854      20 -87.9803
      21 -87.9670      22 -87.9705      23 -87.9992      24 -87.9967      25 -87.9759
      26 -87.9783      27 -87.9758      28 -87.9902      29 -87.9725      30 -87.9757
      31 -88.0003      32 -87.9885      33 -87.9839      34 -87.9780      35 -87.9756
      36 -87.9790      37 -87.9809      38 -87.9844      39 -87.9843      40 -87.9820
      41 -87.9829      42 -87.9864      43 -87.9795      44 -87.9865      45 -87.9750
      46 -87.9733      47 -87.9813      48 -87.9779      49 -87.9831      50 -87.9813
      51 -91.8337      52-124.2072      53-124.2121
 
 
 
 E-fermi :  -4.4450     XC(G=0):  -1.8458     alpha+bet : -1.6890

 Fermi energy:        -4.4449782040

 k-point     1 :       0.0000    0.0000    0.0000
  band No.  band energies     occupation 
      1     -29.1132      2.00000
      2     -28.0053      2.00000
      3     -23.6881      2.00000
      4     -22.7061      2.00000
      5     -22.6994      2.00000
      6     -22.6927      2.00000
      7     -22.6923      2.00000
      8     -22.6895      2.00000
      9     -22.6861      2.00000
     10     -20.7551      2.00000
     11     -20.7528      2.00000
     12     -20.7469      2.00000
     13     -20.7455      2.00000
     14     -20.7442      2.00000
     15     -20.7439      2.00000
     16     -19.8100      2.00000
     17     -19.8079      2.00000
     18     -19.8056      2.00000
     19     -19.8033      2.00000
     20     -19.8024      2.00000
     21     -19.8019      2.00000
     22     -17.5697      2.00000
     23     -17.5681      2.00000
     24     -17.5648      2.00000
     25     -17.5642      2.00000
     26     -17.5603      2.00000
     27     -17.5596      2.00000
     28     -16.4007      2.00000
     29     -16.3996      2.00000
     30     -16.3956      2.00000
     31     -16.3950      2.00000
     32     -16.3936      2.00000
     33     -16.3931      2.00000
     34     -14.9920      2.00000
     35     -14.9913      2.00000
     36     -14.9904      2.00000
     37     -14.9883      2.00000
     38     -14.9881      2.00000
     39     -14.9878      2.00000
     40     -13.1962      2.00000
     41     -12.5004      2.00000
     42     -12.4998      2.00000
     43     -12.4964      2.00000
     44     -12.4961      2.00000
     45     -12.4959      2.00000
     46     -12.4954      2.00000
     47     -12.2942      2.00000
     48     -12.2928      2.00000
     49     -12.2906      2.00000
     50     -12.2903      2.00000
     51     -12.2868      2.00000
     52     -12.2866      2.00000
     53     -11.8557      2.00000
     54     -11.7708      2.00000
     55     -11.6527      2.00000
     56     -10.9345      2.00000
     57     -10.8281      2.00000
     58     -10.8281      2.00000
     59     -10.8267      2.00000
     60     -10.8264      2.00000
     61     -10.8253      2.00000
     62     -10.8249      2.00000
     63      -9.8066      2.00000
     64      -9.8025      2.00000
     65      -9.8010      2.00000
     66      -9.7972      2.00000
     67      -9.7950      2.00000
     68      -9.7371      2.00000
     69      -9.5013      2.00000
     70      -9.4969      2.00000
     71      -9.4957      2.00000
     72      -9.4946      2.00000
     73      -9.4939      2.00000
     74      -9.4920      2.00000
     75      -9.4912      2.00000
     76      -9.4900      2.00000
     77      -9.4887      2.00000
     78      -9.4868      2.00000
     79      -9.4865      2.00000
     80      -9.4858      2.00000
     81      -8.1027      2.00000
     82      -8.0260      2.00000
     83      -7.7525      2.00000
     84      -7.7517      2.00000
     85      -7.7510      2.00000
     86      -7.7483      2.00000
     87      -7.7461      2.00000
     88      -7.7458      2.00000
     89      -7.5645      2.00000
     90      -7.5565      2.00000
     91      -7.5500      2.00000
     92      -7.5460      2.00000
     93      -7.5426      2.00000
     94      -7.4607      2.00000
     95      -6.6188      2.00000
     96      -6.6162      2.00000
     97      -6.6082      2.00000
     98      -6.6061      2.00000
     99      -6.6005      2.00000
    100      -6.5692      2.00000
    101      -6.1793      2.00000
    102      -6.1769      2.00000
    103      -4.5224      2.00000
    104      -4.5169      2.00000
    105      -4.5121      2.00000
    106      -4.5093      2.00000
    107      -4.5048      2.00000
    108      -4.5039      2.00000
    109      -1.5360      0.00000
    110      -1.5324      0.00000
    111      -1.5182      0.00000
    112      -1.5155      0.00000
    113      -1.5135      0.00000
    114      -1.5100      0.00000
    115       0.4458      0.00000
    116       0.4574      0.00000
    117       0.4655      0.00000
    118       0.4750      0.00000
    119       0.4774      0.00000
    120       0.4801      0.00000
    121       0.6329      0.00000
    122       1.1985      0.00000
    123       1.2305      0.00000
    124       1.2633      0.00000
    125       1.5032      0.00000
    126       1.7136      0.00000
    127       2.0076      0.00000
    128       2.0462      0.00000
    129       2.0534      0.00000
    130       2.0592      0.00000
    131       2.1084      0.00000
    132       2.1509      0.00000
    133       2.3263      0.00000
    134       2.3322      0.00000
    135       2.3434      0.00000
    136       2.3439      0.00000
    137       2.3453      0.00000
    138       2.3485      0.00000
    139       2.3641      0.00000
    140       2.5391      0.00000
    141       2.6653      0.00000
    142       2.7281      0.00000
    143       2.7370      0.00000
    144       2.7389      0.00000
    145       2.7662      0.00000
    146       2.8150      0.00000
    147       2.8192      0.00000
    148       2.8322      0.00000
    149       2.8415      0.00000
    150       2.8440      0.00000
    151       2.8738      0.00000
    152       3.4514      0.00000
    153       3.5700      0.00000
    154       3.6344      0.00000
    155       3.7730      0.00000
    156       3.8074      0.00000
    157       3.9133      0.00000
    158       4.0262      0.00000
    159       4.3364      0.00000
    160       4.4129      0.00000
    161       4.4917      0.00000
    162       4.7981      0.00000
    163       4.8569      0.00000
    164       4.8682      0.00000
    165       4.8693      0.00000
    166       4.8705      0.00000
    167       4.8711      0.00000
    168       4.8824      0.00000


--------------------------------------------------------------------------------------------------------


 soft charge-density along one line, spin component           1
         0         1         2         3         4         5         6         7         8         9
 total charge-density along one line
 
 pseudopotential strength for first ion, spin component:           1
 12.639  21.267  -0.000   0.000   0.000  -0.000   0.000   0.000
 21.267  35.784  -0.000   0.000   0.000  -0.000   0.000   0.000
 -0.000  -0.000  -3.235  -0.000   0.000  -5.794   0.000   0.000
  0.000   0.000  -0.000  -3.235  -0.000   0.000  -5.794  -0.000
  0.000   0.000   0.000  -0.000  -3.235   0.000  -0.000  -5.794
 -0.000  -0.000  -5.794   0.000   0.000 -10.355   0.000   0.000
  0.000   0.000   0.000  -5.794  -0.000   0.000 -10.353  -0.000
  0.000   0.000   0.000  -0.000  -5.794   0.000  -0.000 -10.355
 total augmentation occupancy for first ion, spin component:           1
 10.263  -3.893  -0.001  -0.002   0.001   0.000   0.001  -0.000
 -3.893   1.507   0.000   0.001  -0.000  -0.000  -0.000   0.000
 -0.001   0.000   8.468  -0.009   0.000  -3.024   0.003  -0.000
 -0.002   0.001  -0.009   4.015  -0.000   0.003  -1.207   0.000
  0.001  -0.000   0.000  -0.000   8.467  -0.000   0.000  -3.024
  0.000  -0.000  -3.024   0.003  -0.000   1.092  -0.001   0.000
  0.001  -0.000   0.003  -1.207   0.000  -0.001   0.368   0.000
 -0.000   0.000  -0.000   0.000  -3.024   0.000   0.000   1.092


------------------------ aborting loop because EDIFF is reached ----------------------------------------


    FORLOC:  cpu time    0.1419: real time    0.1429
    FORNL :  cpu time    3.8252: real time    3.8611
    FORCOR:  cpu time    1.6147: real time    1.6237
    OFIELD:  cpu time    0.0029: real time    0.0029

 VOLUME and BASIS-vectors are now :
 -----------------------------------------------------------------------------
  energy-cutoff  :     1000.00
  volume of cell :     3288.85
      direct lattice vectors                 reciprocal lattice vectors
    12.325000000  0.000000000  0.000000000     0.081135903  0.046843835  0.000000000
    -6.162500000 10.673763102  0.000000000     0.000000000  0.093687670  0.000000000
     0.000000000  0.000000000 25.000000000     0.000000000  0.000000000  0.040000000

  length of vectors
    12.325000000 12.325000000 25.000000000     0.093687670  0.093687670  0.040000000


 FORCES acting on ions:
    Electron-Ion                     Ewald-Force                    Non-Local-Force
 -----------------------------------------------------------------------------------------------
   0.121E+02 0.106E+02 0.252E+02   -.121E+02 -.106E+02 -.252E+02   0.145E-01 -.726E-02 0.118E-01
   0.202E+02 0.101E+02 0.335E+02   -.202E+02 -.101E+02 -.334E+02   0.227E-01 -.149E-01 -.949E-02
   0.102E+02 0.259E+02 0.421E+02   -.102E+02 -.260E+02 -.421E+02   -.240E-02 0.531E-01 0.413E-01
   0.168E+02 0.247E+02 0.702E+02   -.169E+02 -.247E+02 -.703E+02   0.691E-01 0.294E-01 0.104E+00
   0.132E+02 0.314E+01 0.253E+02   -.132E+02 -.312E+01 -.252E+02   0.294E-02 -.193E-01 -.700E-02
   0.139E+02 -.234E+01 0.259E+02   -.139E+02 0.235E+01 -.259E+02   -.248E-01 -.517E-02 -.158E-01
   0.283E+02 0.118E+02 0.595E+02   -.284E+02 -.117E+02 -.595E+02   0.577E-01 -.784E-01 -.240E-01
   0.282E+02 -.941E+01 0.639E+02   -.282E+02 0.946E+01 -.638E+02   -.671E-02 -.327E-01 -.163E+00
   -.113E+02 0.242E+02 0.436E+02   0.113E+02 -.241E+02 -.436E+02   -.234E-01 -.860E-02 -.480E-01
   -.212E+02 0.182E+02 0.686E+02   0.213E+02 -.183E+02 -.685E+02   -.742E-01 0.386E-01 -.151E+00
   0.322E+01 -.282E+01 0.202E+02   -.320E+01 0.280E+01 -.202E+02   -.684E-02 0.533E-02 -.613E-02
   0.254E+01 -.205E+01 0.187E+02   -.254E+01 0.205E+01 -.187E+02   -.170E-01 0.723E-02 0.169E-02
   0.107E+02 -.262E+02 0.738E+02   -.108E+02 0.263E+02 -.737E+02   0.105E+00 -.117E-01 -.169E+00
   0.476E+01 -.263E+02 0.430E+02   -.480E+01 0.263E+02 -.430E+02   0.301E-01 0.244E-03 -.456E-01
   -.118E+02 0.746E+01 0.248E+02   0.118E+02 -.745E+01 -.248E+02   0.179E-01 -.989E-02 -.928E-02
   -.178E+02 0.497E+01 0.293E+02   0.178E+02 -.498E+01 -.293E+02   0.973E-03 0.103E-01 -.281E-01
   -.173E+01 -.711E+00 0.180E+02   0.174E+01 0.708E+00 -.180E+02   -.521E-02 -.617E-03 0.120E-02
   0.971E+00 0.640E+01 0.192E+02   -.965E+00 -.640E+01 -.192E+02   -.977E-02 0.425E-02 0.856E-02
   -.369E+01 -.212E+02 0.318E+02   0.367E+01 0.212E+02 -.318E+02   0.329E-01 -.431E-02 0.102E-01
   -.153E+01 -.997E+01 0.213E+02   0.152E+01 0.998E+01 -.213E+02   0.550E-02 -.571E-02 -.220E-02
   0.213E+02 -.922E+01 0.365E+02   -.212E+02 0.921E+01 -.365E+02   -.912E-02 -.507E-02 -.539E-01
   0.123E+02 -.107E+02 0.279E+02   -.123E+02 0.107E+02 -.279E+02   -.163E-01 0.210E-01 -.189E-01
   -.528E+01 0.123E+02 0.925E+02   0.538E+01 -.124E+02 -.926E+02   -.973E-01 0.709E-01 0.150E-01
   -.985E+01 -.196E+02 0.865E+02   0.978E+01 0.197E+02 -.866E+02   0.666E-01 -.841E-01 0.392E-01
   0.559E+01 -.249E+01 0.203E+02   -.557E+01 0.249E+01 -.203E+02   -.133E-01 0.299E-02 -.103E-01
   0.101E+01 0.502E+01 0.205E+02   -.100E+01 -.503E+01 -.205E+02   -.142E-01 0.642E-02 -.165E-02
   -.280E+02 0.311E+01 0.488E+02   0.280E+02 -.316E+01 -.488E+02   -.174E-03 0.335E-01 -.576E-01
   -.252E+02 -.109E+02 0.432E+02   0.253E+02 0.109E+02 -.433E+02   -.430E-01 0.391E-01 0.184E-01
   0.753E+01 -.155E+02 0.293E+02   -.753E+01 0.155E+02 -.293E+02   0.102E-01 0.130E-01 -.238E-01
   0.701E+00 -.559E+01 0.217E+02   -.715E+00 0.558E+01 -.217E+02   0.355E-02 0.116E-01 -.102E-01
   -.209E+02 -.226E+02 0.545E+02   0.209E+02 0.227E+02 -.546E+02   -.556E-01 -.362E-01 0.786E-01
   -.115E+02 -.208E+02 0.343E+02   0.115E+02 0.209E+02 -.343E+02   -.239E-03 -.317E-01 0.223E-01
   0.642E+00 0.266E+01 0.186E+02   -.647E+00 -.266E+01 -.186E+02   0.126E-01 -.948E-02 0.385E-02
   0.185E+01 0.270E+01 0.201E+02   -.186E+01 -.269E+01 -.201E+02   0.917E-03 -.590E-02 -.652E-02
   -.822E+01 0.991E+00 0.222E+02   0.821E+01 -.100E+01 -.222E+02   0.123E-01 0.246E-02 -.361E-02
   -.703E+01 -.279E+01 0.215E+02   0.704E+01 0.279E+01 -.215E+02   -.117E-01 0.964E-02 -.412E-02
   -.144E+02 -.755E+01 0.259E+02   0.145E+02 0.754E+01 -.259E+02   -.178E-01 0.443E-02 -.996E-03
   -.820E+01 -.667E+01 0.211E+02   0.821E+01 0.667E+01 -.212E+02   -.115E-01 0.366E-02 0.991E-02
   -.774E+01 -.101E+02 0.228E+02   0.775E+01 0.101E+02 -.228E+02   -.121E-01 -.897E-02 0.664E-02
   -.113E+01 -.238E+01 0.192E+02   0.113E+01 0.239E+01 -.192E+02   0.190E-02 -.219E-02 0.825E-02
   0.290E+01 0.691E+01 0.201E+02   -.290E+01 -.693E+01 -.201E+02   -.403E-02 0.110E-01 0.775E-02
   0.979E+01 0.153E+02 0.270E+02   -.980E+01 -.153E+02 -.270E+02   0.133E-01 0.146E-01 0.136E-01
   0.775E+00 0.125E+02 0.226E+02   -.764E+00 -.125E+02 -.226E+02   -.899E-02 0.983E-02 -.234E-02
   0.212E+00 0.241E+02 0.356E+02   -.177E+00 -.241E+02 -.356E+02   -.416E-01 0.116E-01 0.122E-01
   -.236E+01 0.472E+01 0.217E+02   0.237E+01 -.471E+01 -.217E+02   0.102E-02 -.899E-02 -.774E-02
   -.101E+02 0.130E+02 0.279E+02   0.101E+02 -.129E+02 -.279E+02   -.803E-02 -.376E-02 -.220E-01
   -.166E+01 -.471E+01 0.199E+02   0.166E+01 0.471E+01 -.199E+02   0.158E-01 -.122E-02 0.941E-03
   -.439E+01 0.180E+01 0.191E+02   0.437E+01 -.180E+01 -.191E+02   0.109E-01 -.154E-02 -.877E-02
   0.332E+00 -.292E+01 0.188E+02   -.333E+00 0.292E+01 -.188E+02   0.851E-02 -.337E-02 0.570E-02
   0.461E+01 0.339E+01 0.190E+02   -.462E+01 -.339E+01 -.190E+02   0.553E-02 0.411E-02 0.342E-02
   0.221E+00 -.141E+00 -.418E+03   -.204E+00 0.128E+00 0.418E+03   -.198E-01 0.979E-02 -.554E-01
   -.228E+03 0.155E+03 -.641E+03   0.279E+03 -.190E+03 0.644E+03   -.521E+02 0.355E+02 -.301E+01
   0.228E+03 -.155E+03 -.618E+03   -.279E+03 0.190E+03 0.615E+03   0.521E+02 -.355E+02 0.363E+01
 -----------------------------------------------------------------------------------------------
   0.486E-01 -.315E-02 -.715E-01   0.568E-13 -.114E-12 -.455E-12   -.489E-01 0.256E-02 0.766E-01
 
 
 POSITION                                       TOTAL-FORCE (eV/Angst)
 -----------------------------------------------------------------------------------
     11.98348      0.00342      0.01417         0.001394     -0.001071     -0.001962
     -0.34154      1.42665      0.01100         0.003621      0.003787     -0.000829
      2.12355      0.00315      0.01249         0.002827     -0.012859      0.004448
      2.12326      1.42653      0.00641        -0.003790      0.005274     -0.003288
     10.75099      2.13819      0.01213         0.000264     -0.003717      0.001282
     -1.57382      3.56123      0.01110        -0.006231      0.006953     -0.000012
      0.89078      2.13854      0.00548        -0.011445      0.007973     -0.009332
      0.89099      3.56147      0.00181        -0.010310      0.014315     -0.037731
      4.58864      0.00346      0.01135         0.008777      0.016394     -0.002963
      4.58894      1.42623      0.00646         0.009897     -0.008969     -0.052464
      9.51854      4.27281      0.01369         0.008596     -0.009881     -0.000124
     -2.80632      5.69591      0.01434        -0.011384      0.006232      0.000795
      2.12300      4.27302      0.00000        -0.012792      0.023142     -0.066257
      2.12335      5.69594      0.00581        -0.005083     -0.023959     -0.001741
      7.05344      0.00333      0.01399         0.004905     -0.002371      0.001007
      7.05353      1.42635      0.01368        -0.005309      0.005140     -0.001259
      8.28610      6.40752      0.01601         0.004516     -0.003348     -0.000850
     -4.03885      7.83070      0.01636        -0.004453      0.004943     -0.000647
      3.35586      6.40753      0.01007         0.005861      0.002602      0.001237
      3.35599      7.83072      0.01320        -0.002402     -0.001839     -0.000334
     -0.34146      4.27290      0.00723         0.018444     -0.011762     -0.001046
     -0.34138      5.69591      0.00946        -0.007140      0.004893      0.002553
      3.35624      2.13791      0.00222         0.008019     -0.007579     -0.089658
      3.35573      3.56155      0.00139        -0.001692      0.011174     -0.056224
     -1.57395      6.40758      0.01311         0.012845     -0.003056     -0.001198
     -1.57385      7.83068      0.01438        -0.005489      0.004309     -0.000175
      5.82093      2.13784      0.01033        -0.007414     -0.014590     -0.007091
      5.82114      3.56097      0.01156         0.001365     -0.000085      0.004442
      0.89092      6.40755      0.00907         0.001723      0.000354      0.001879
      0.89106      7.83068      0.01235        -0.010333     -0.001760     -0.000196
      4.58871      4.27293      0.00850         0.002499     -0.006001      0.006680
      4.58852      5.69606      0.01149         0.001022      0.013412     -0.000063
      9.51845      0.00337      0.01490         0.007304     -0.007168      0.000040
      9.51855      1.42644      0.01438        -0.004502      0.011509     -0.000895
      8.28593      2.13803      0.01453         0.003028     -0.007078      0.000382
      8.28613      3.56115      0.01464        -0.004933      0.001872     -0.000213
      7.05356      4.27269      0.01457         0.002280     -0.000679     -0.000188
      7.05362      5.69588      0.01553        -0.002878      0.000795     -0.000931
      5.82112      6.40755      0.01489        -0.001446      0.000566     -0.001239
      5.82102      7.83073      0.01579        -0.001160      0.003204     -0.000818
      7.05363      8.54227      0.01631        -0.000597     -0.001750      0.000436
     -5.27149      9.96549      0.01495        -0.001622     -0.002237     -0.003423
     -2.80638      8.54234      0.01558         0.002043      0.000021     -0.001312
     -2.80627      9.96553      0.01362        -0.006240     -0.001146      0.001266
     -0.34149      8.54239      0.01378         0.006836     -0.000493     -0.000041
     -0.34138      9.96550      0.01354        -0.006529      0.003448      0.000978
      2.12343      8.54232      0.01336         0.007420     -0.000802      0.000696
      2.12354      9.96544      0.01469        -0.008821      0.003931     -0.002573
      4.58846      8.54235      0.01505         0.007669     -0.005945      0.000716
      4.58853      9.96550      0.01517        -0.002519      0.005075      0.000248
      3.04930      2.68154      2.97302        -0.002594     -0.002817      0.046760
      4.02070      2.02068      3.03744        -1.392445      0.964503      0.030526
      2.07767      3.34267      2.91356         1.408397     -0.982857      0.240708
 -----------------------------------------------------------------------------------
    total drift:                               -0.000336     -0.000592      0.005107


--------------------------------------------------------------------------------------------------------



  FREE ENERGIE OF THE ION-ELECTRON SYSTEM (eV)
  ---------------------------------------------------
  free  energy   TOTEN  =      -523.34877239 eV

  energy  without entropy=     -523.34877239  energy(sigma->0) =     -523.34877239
 


--------------------------------------------------------------------------------------------------------


    POTLOK:  cpu time    1.9131: real time    1.9232


--------------------------------------------------------------------------------------------------------


 writing wavefunctions
     LOOP+:  cpu time  950.7953: real time  958.5907
    4ORBIT:  cpu time    0.0000: real time    0.0000

 total amount of memory used by VASP MPI-rank0   698619. kBytes
=======================================================================

   base      :      30000. kBytes
   nonl-proj :     230539. kBytes
   fftplans  :      40716. kBytes
   grid      :     363125. kBytes
   one-center:        162. kBytes
   wavefun   :      34077. kBytes
 
  
  
 General timing and accounting informations for this job:
 ========================================================
  
                  Total CPU time used (sec):      996.619
                            User time (sec):      969.022
                          System time (sec):       27.597
                         Elapsed time (sec):     1005.845
  
                   Maximum memory used (kb):     1279396.
                   Average memory used (kb):          N/A
  
                          Minor page faults:       211553
                          Major page faults:          135
                 Voluntary context switches:         4021
