 vasp.6.2.1 16May21 (build Nov 06 2021 14:46:37) complex                        
  
 executed on             LinuxIFC date 2025.04.16  22:33:36
 running on  112 total cores
 distrk:  each k-point on   56 cores,    2 groups
 distr:  one band on NCORE=   1 cores,   56 groups


--------------------------------------------------------------------------------------------------------


 INCAR:
   ALGO = Conjugate
   KPAR = 2
   NCORE = 32
   ISMEAR = 0
   SIGMA = 0.01
   PREC = Accurate
   EDIFF = 1E-7
   ENCUT = 1000
   ISIF = 0
   METAGGA = R2SCAN
   LASPH = .TRUE.
   SYMPREC = 1E-7

 POTCAR:    PAW_PBE C_h 06Feb2004                 
 POTCAR:    PAW_PBE O_h 06Feb2004                 
 -----------------------------------------------------------------------------
|                                                                             |
|           W    W    AA    RRRRR   N    N  II  N    N   GGGG   !!!           |
|           W    W   A  A   R    R  NN   N  II  NN   N  G    G  !!!           |
|           W    W  A    A  R    R  N N  N  II  N N  N  G       !!!           |
|           W WW W  AAAAAA  RRRRR   N  N N  II  N  N N  G  GGG   !            |
|           WW  WW  A    A  R   R   N   NN  II  N   NN  G    G                |
|           W    W  A    A  R    R  N    N  II  N    N   GGGG   !!!           |
|                                                                             |
|     The value NCORE = 32 specified in the INCAR file was overwritten,       |
|     because it was not compatible with the 56 processes available:          |
|     NCORE = 1                                                               |
|     was used instead, please check that this makes sense for your           |
|     machine.                                                                |
|                                                                             |
 -----------------------------------------------------------------------------

 -----------------------------------------------------------------------------
|                                                                             |
|           W    W    AA    RRRRR   N    N  II  N    N   GGGG   !!!           |
|           W    W   A  A   R    R  NN   N  II  NN   N  G    G  !!!           |
|           W    W  A    A  R    R  N N  N  II  N N  N  G       !!!           |
|           W WW W  AAAAAA  RRRRR   N  N N  II  N  N N  G  GGG   !            |
|           WW  WW  A    A  R   R   N   NN  II  N   NN  G    G                |
|           W    W  A    A  R    R  N    N  II  N    N   GGGG   !!!           |
|                                                                             |
|     For optimal performance we recommend to set                             |
|       NCORE = 2 up to number-of-cores-per-socket                            |
|     NCORE specifies how many cores store one orbital (NPAR=cpu/NCORE).      |
|     This setting can greatly improve the performance of VASP for DFT.       |
|     The default, NCORE=1 might be grossly inefficient on modern             |
|     multi-core architectures or massively parallel machines. Do your        |
|     own testing! More info at https://www.vasp.at/wiki/index.php/NCORE      |
|     Unfortunately you need to use the default for GW and RPA                |
|     calculations (for HF NCORE is supported but not extensively tested      |
|     yet).                                                                   |
|                                                                             |
 -----------------------------------------------------------------------------

 POTCAR:    PAW_PBE C_h 06Feb2004                 
   VRHFIN =C: s2p2                                                                                  
   LEXCH  = PE                                                                                      
   EATOM  =   147.1560 eV,   10.8157 Ry                                                             
                                                                                                    
   TITEL  = PAW_PBE C_h 06Feb2004                                                                   
   LULTRA =        F    use ultrasoft PP ?                                                          
   IUNSCR =        1    unscreen: 0-lin 1-nonlin 2-no                                               
   RPACOR =    0.800    partial core radius                                                         
   POMASS =   12.011; ZVAL   =    4.000    mass and valenz                                          
   RCORE  =    1.100    outmost cutoff radius                                                       
   RWIGS  =    1.630; RWIGS  =    0.863    wigner-seitz radius (au A)                               
   ENMAX  =  700.000; ENMIN  =  500.000 eV                                                          
   ICORE  =        2    local potential                                                             
   LCOR   =        T    correct aug charges                                                         
   LPAW   =        T    paw PP                                                                      
   EAUG   =  946.768                                                                                
   DEXC   =    0.000                                                                                
   RMAX   =    1.128    core radius for proj-oper                                                   
   RAUG   =    1.300    factor for augmentation sphere                                              
   RDEP   =    1.162    radius for radial grids                                                     
   RDEPT  =    1.088    core radius for aug-charge                                                  
                                                                                                    
   Atomic configuration                                                                             
    4 entries                                                                                       
     n  l   j            E        occ.                                                              
     1  0  0.50      -273.3789   2.0000                                                             
     2  0  0.50       -13.7508   2.0000                                                             
     2  1  0.50        -5.2854   2.0000                                                             
     3  2  1.50        -5.4423   0.0000                                                             
   Description                                                                                      
     l       E           TYP  RCUT    TYP  RCUT                                                     
     0    -13.7508458     23  1.100                                                                 
     0     -8.2022199     23  1.100                                                                 
     1     -5.2854383     23  1.100                                                                 
     1      1.1560700     23  1.100                                                                 
     2     -5.4423304      7  1.100                                                                 
  local pseudopotential read in
  partial core-charges read in
  partial kinetic energy density read in
  atomic valenz-charges read in
  non local Contribution for L=           0  read in
    real space projection operators read in
  non local Contribution for L=           0  read in
    real space projection operators read in
  non local Contribution for L=           1  read in
    real space projection operators read in
  non local Contribution for L=           1  read in
    real space projection operators read in
    PAW grid and wavefunctions read in
 
   number of l-projection  operators is LMAX  =           4
   number of lm-projection operators is LMMAX =           8
 
 POTCAR:    PAW_PBE O_h 06Feb2004                 
   VRHFIN =O: s2p4                                                                                  
   LEXCH  = PE                                                                                      
   EATOM  =   432.3788 eV,   31.7789 Ry                                                             
                                                                                                    
   TITEL  = PAW_PBE O_h 06Feb2004                                                                   
   LULTRA =        F    use ultrasoft PP ?                                                          
   IUNSCR =        1    unscreen: 0-lin 1-nonlin 2-no                                               
   RPACOR =    0.800    partial core radius                                                         
   POMASS =   16.000; ZVAL   =    6.000    mass and valenz                                          
   RCORE  =    1.100    outmost cutoff radius                                                       
   RWIGS  =    1.400; RWIGS  =    0.741    wigner-seitz radius (au A)                               
   ENMAX  =  700.000; ENMIN  =  500.000 eV                                                          
   ICORE  =        2    local potential                                                             
   LCOR   =        T    correct aug charges                                                         
   LPAW   =        T    paw PP                                                                      
   EAUG   =  888.804                                                                                
   DEXC   =    0.000                                                                                
   RMAX   =    1.128    core radius for proj-oper                                                   
   RAUG   =    1.300    factor for augmentation sphere                                              
   RDEP   =    1.125    radius for radial grids                                                     
   RDEPT  =    1.088    core radius for aug-charge                                                  
                                                                                                    
   Atomic configuration                                                                             
    4 entries                                                                                       
     n  l   j            E        occ.                                                              
     1  0  0.50      -514.6923   2.0000                                                             
     2  0  0.50       -23.9615   2.0000                                                             
     2  1  0.50        -9.0305   4.0000                                                             
     3  2  1.50        -9.5241   0.0000                                                             
   Description                                                                                      
     l       E           TYP  RCUT    TYP  RCUT                                                     
     0    -23.9615319     23  1.100                                                                 
     0    -25.3221145     23  1.100                                                                 
     1     -9.0304911     23  1.100                                                                 
     1     -5.4802209     23  1.100                                                                 
     2     -9.5240782      7  1.100                                                                 
  local pseudopotential read in
  partial core-charges read in
  partial kinetic energy density read in
  atomic valenz-charges read in
  non local Contribution for L=           0  read in
    real space projection operators read in
  non local Contribution for L=           0  read in
    real space projection operators read in
  non local Contribution for L=           1  read in
    real space projection operators read in
  non local Contribution for L=           1  read in
    real space projection operators read in
    PAW grid and wavefunctions read in
 
   number of l-projection  operators is LMAX  =           4
   number of lm-projection operators is LMMAX =           8
 
 -----------------------------------------------------------------------------
|                                                                             |
|               ----> ADVICE to this user running VASP <----                  |
|                                                                             |
|     You have a (more or less) 'large supercell' and for larger cells it     |
|     might be more efficient to use real-space projection operators.         |
|     Therefore, try LREAL= Auto in the INCAR file.                           |
|     Mind: For very accurate calculation, you might also keep the            |
|     reciprocal projection scheme (i.e. LREAL=.FALSE.).                      |
|                                                                             |
 -----------------------------------------------------------------------------

  PAW_PBE C_h 06Feb2004                 :
 energy of atom  1       EATOM= -147.1560
 kinetic energy error for atom=    0.0031 (will be added to EATOM!!)
  PAW_PBE O_h 06Feb2004                 :
 energy of atom  2       EATOM= -432.3788
 kinetic energy error for atom=    0.0171 (will be added to EATOM!!)
 
 
 POSCAR:  C  O
  positions in cartesian coordinates
  No initial velocities read in

 METAGGA = R2SCA    LMAXTAU =  6    LMIXTAU =  F

 exchange correlation table for  LEXCH =        8
   RHO(1)=    0.500       N(1)  =     2000
   RHO(2)=  100.500       N(2)  =     4000
 


--------------------------------------------------------------------------------------------------------


 ion  position               nearest neighbor table
   1  0.972  0.000  0.001-  50 1.42   2 1.42  42 1.42
   2  0.039  0.134  0.000-   5 1.42   7 1.42   1 1.42
   3  0.172  0.000  0.000-  42 1.42  44 1.42   4 1.42
   4  0.239  0.134  0.000-   7 1.42   3 1.42  23 1.42
   5  0.972  0.200  0.000-   6 1.42   2 1.42  34 1.42
   6  0.039  0.334  0.000-   5 1.42  21 1.42  11 1.42
   7  0.172  0.200  0.000-   8 1.42   2 1.42   4 1.42
   8  0.239  0.334  0.000-  13 1.42   7 1.42  21 1.42
   9  0.372  0.000  0.000-  10 1.42  44 1.42  46 1.42
  10  0.439  0.134  0.000-  27 1.42   9 1.42  23 1.42
  11  0.972  0.400  0.001-  12 1.42  36 1.42   6 1.42
  12  0.039  0.534  0.001-  25 1.42  11 1.42  17 1.42
  13  0.372  0.400  0.000-   8 1.42  14 1.42  24 1.42
  14  0.439  0.534  0.000-  13 1.42  29 1.42  19 1.42
  15  0.572  0.000  0.001-  46 1.42  16 1.42  48 1.42
  16  0.639  0.134  0.001-  15 1.42  35 1.42  27 1.42
  17  0.972  0.600  0.001-  38 1.42  18 1.42  12 1.42
  18  0.039  0.734  0.001-  43 1.42  41 1.42  17 1.42
  19  0.572  0.600  0.000-  14 1.42  20 1.42  32 1.42
  20  0.639  0.734  0.001-  49 1.42  19 1.42  47 1.42
  21  0.172  0.400  0.000-  22 1.42   8 1.42   6 1.42
  22  0.239  0.534  0.000-  21 1.42  29 1.42  25 1.42
  23  0.372  0.200  0.000-  10 1.42   4 1.42  24 1.42
  24  0.439  0.334  0.000-  13 1.42  31 1.42  23 1.42
  25  0.172  0.600  0.001-  26 1.42  12 1.42  22 1.42
  26  0.239  0.734  0.001-  25 1.42  45 1.42  43 1.42
  27  0.572  0.200  0.000-  10 1.42  28 1.42  16 1.42
  28  0.639  0.334  0.000-  27 1.42  37 1.42  31 1.42
  29  0.372  0.600  0.000-  22 1.42  14 1.42  30 1.42
  30  0.439  0.734  0.000-  47 1.42  29 1.42  45 1.42
  31  0.572  0.400  0.000-  32 1.42  28 1.42  24 1.42
  32  0.639  0.534  0.000-  31 1.42  39 1.42  19 1.42
  33  0.772  0.000  0.001-  34 1.42  48 1.42  50 1.42
  34  0.839  0.134  0.001-  33 1.42   5 1.42  35 1.42
  35  0.772  0.200  0.001-  36 1.42  16 1.42  34 1.42
  36  0.839  0.334  0.001-  35 1.42  11 1.42  37 1.42
  37  0.772  0.400  0.001-  28 1.42  38 1.42  36 1.42
  38  0.839  0.534  0.001-  17 1.42  37 1.42  39 1.42
  39  0.772  0.600  0.001-  40 1.42  38 1.42  32 1.42
  40  0.839  0.734  0.001-  39 1.42  49 1.42  41 1.42
  41  0.972  0.800  0.001-  18 1.42  42 1.42  40 1.42
  42  0.039  0.934  0.001-   3 1.42  41 1.42   1 1.42
  43  0.172  0.800  0.001-  18 1.42  44 1.42  26 1.42
  44  0.239  0.934  0.001-   9 1.42  43 1.42   3 1.42
  45  0.372  0.800  0.001-  26 1.42  46 1.42  30 1.42
  46  0.439  0.934  0.001-  15 1.42  45 1.42   9 1.42
  47  0.572  0.800  0.001-  30 1.42  48 1.42  20 1.42
  48  0.639  0.934  0.001-  47 1.42  33 1.42  15 1.42
  49  0.772  0.800  0.001-  50 1.42  20 1.42  40 1.42
  50  0.839  0.934  0.001-  49 1.42   1 1.42  33 1.42
  51  0.373  0.251  0.317-  52 1.18  53 1.18
  52  0.421  0.189  0.320-  51 1.18
  53  0.325  0.313  0.315-  51 1.18
 
  LATTYP: Found a hexagonal cell.
 ALAT       =    12.3250000000
 C/A-ratio  =     2.0283975659
  
  Lattice vectors:
  
 A1 = (  12.3250000000,   0.0000000000,   0.0000000000)
 A2 = (  -6.1625000000,  10.6737631016,   0.0000000000)
 A3 = (   0.0000000000,   0.0000000000,  25.0000000000)


Analysis of symmetry for initial positions (statically):
=====================================================================
 Subroutine PRICEL returns:
 Original cell was already a primitive cell.
 

 Routine SETGRP: Setting up the symmetry group for a 
 hexagonal supercell.


 Subroutine GETGRP returns: Found  1 space group operations
 (whereof  1 operations were pure point group operations)
 out of a pool of 24 trial point group operations.


The static configuration has the point symmetry C_1 .


Analysis of symmetry for dynamics (positions and initial velocities):
=====================================================================
 Subroutine PRICEL returns:
 Original cell was already a primitive cell.
 

 Routine SETGRP: Setting up the symmetry group for a 
 hexagonal supercell.


 Subroutine GETGRP returns: Found  1 space group operations
 (whereof  1 operations were pure point group operations)
 out of a pool of 24 trial point group operations.


The dynamic configuration has the point symmetry C_1 .


 Subroutine INISYM returns: Found  1 space group operations
 (whereof  1 operations are pure point group operations),
 and found     1 'primitive' translations


----------------------------------------------------------------------------------------

                                     Primitive cell                                     

  volume of cell :    3288.8533

  direct lattice vectors                    reciprocal lattice vectors
    12.325000000  0.000000000  0.000000000     0.081135903  0.046843835  0.000000000
    -6.162500000 10.673763102  0.000000000     0.000000000  0.093687670  0.000000000
     0.000000000  0.000000000 25.000000000     0.000000000  0.000000000  0.040000000

  length of vectors
    12.325000000 12.325000000 25.000000000     0.093687670  0.093687670  0.040000000

  position of ions in fractional coordinates (direct lattice)
     0.972450841  0.000320818  0.000566711
     0.039118382  0.133659505  0.000440173
     0.172443627  0.000295449  0.000499628
     0.239096278  0.133647917  0.000256468
     0.972452058  0.200322012  0.000485219
     0.039128360  0.333643771  0.000444150
     0.172451764  0.200354552  0.000219167
     0.239124359  0.333665720  0.000072260
     0.372465565  0.000324403  0.000453913
     0.439137473  0.133619939  0.000258338
     0.972449824  0.400309362  0.000547611
     0.039124981  0.533636789  0.000573410
     0.372416176  0.400329481  0.000000000
     0.439099602  0.533638981  0.000232414
     0.572443676  0.000312125  0.000559580
     0.639110207  0.133631751  0.000547275
     0.972452703  0.600305653  0.000640289
     0.039124495  0.733640359  0.000654513
     0.572433471  0.600306242  0.000402895
     0.639111888  0.733641879  0.000527905
     0.172454630  0.400318228  0.000289045
     0.239120185  0.533636548  0.000378509
     0.372459750  0.200295993  0.000088997
     0.439107096  0.333673419  0.000055762
     0.172452155  0.600311506  0.000524340
     0.239123371  0.733638574  0.000575129
     0.572431082  0.200289171  0.000413296
     0.639112773  0.333618630  0.000462376
     0.372439808  0.600308022  0.000362844
     0.439116090  0.733637858  0.000494190
     0.572469358  0.400320504  0.000339918
     0.639119408  0.533650873  0.000459610
     0.772445723  0.000315427  0.000596161
     0.839116277  0.133640203  0.000575306
     0.772440513  0.200307432  0.000581033
     0.839120241  0.333635728  0.000585467
     0.772446320  0.400298367  0.000582978
     0.839118980  0.533633964  0.000621100
     0.772456143  0.600308173  0.000595712
     0.839115033  0.733643180  0.000631512
     0.972455313  0.800305582  0.000652233
     0.039114714  0.933643289  0.000598051
     0.172457971  0.800312211  0.000623372
     0.239134551  0.933647193  0.000544850
     0.372451396  0.800316674  0.000551399
     0.439124489  0.933644769  0.000541430
     0.572441101  0.800310054  0.000534535
     0.639115067  0.933638985  0.000587644
     0.772445098  0.800313187  0.000602062
     0.839116614  0.933644338  0.000606830
     0.373021009  0.251226878  0.317480210
     0.420879805  0.189313152  0.320057085
     0.325156981  0.313167186  0.315102016

  ion indices of the primitive-cell ions
   primitive index   ion index
                 1           1
                 2           2
                 3           3
                 4           4
                 5           5
                 6           6
                 7           7
                 8           8
                 9           9
                10          10
                11          11
                12          12
                13          13
                14          14
                15          15
                16          16
                17          17
                18          18
                19          19
                20          20
                21          21
                22          22
                23          23
                24          24
                25          25
                26          26
                27          27
                28          28
                29          29
                30          30
                31          31
                32          32
                33          33
                34          34
                35          35
                36          36
                37          37
                38          38
                39          39
                40          40
                41          41
                42          42
                43          43
                44          44
                45          45
                46          46
                47          47
                48          48
                49          49
                50          50
                51          51
                52          52
                53          53

----------------------------------------------------------------------------------------

 
 
 KPOINTS: auto                                    

Automatic generation of k-mesh.
 Grid dimensions read from file:
 generate k-points for:    1    1    1

 Generating k-lattice:

  Cartesian coordinates                     Fractional coordinates (reciprocal lattice)
     0.081135903  0.046843835  0.000000000     1.000000000 -0.000000000  0.000000000
     0.000000000  0.093687670  0.000000000     0.000000000  1.000000000  0.000000000
     0.000000000  0.000000000  0.040000000     0.000000000  0.000000000  1.000000000

  Length of vectors
     0.093687670  0.093687670  0.040000000

  Shift w.r.t. Gamma in fractional coordinates (k-lattice)
     0.000000000  0.000000000  0.000000000

 
 Subroutine IBZKPT returns following result:
 ===========================================
 
 Found      1 irreducible k-points:
 
 Following reciprocal coordinates:
            Coordinates               Weight
  0.000000  0.000000  0.000000      1.000000
 
 Following cartesian coordinates:
            Coordinates               Weight
  0.000000  0.000000  0.000000      1.000000
 


--------------------------------------------------------------------------------------------------------




 Dimension of arrays:
   k-points           NKPTS =      1   k-points in BZ     NKDIM =      1   number of bands    NBANDS=    168
   number of dos      NEDOS =    301   number of ions     NIONS =     53
   non local maximal  LDIM  =      4   non local SUM 2l+1 LMDIM =      8
   total plane-waves  NPLWV = ******
   max r-space proj   IRMAX =      1   max aug-charges    IRDMAX=  10008
   dimension x,y,z NGX =   128 NGY =  128 NGZ =  270
   dimension x,y,z NGXF=   256 NGYF=  256 NGZF=  540
   support grid    NGXF=   256 NGYF=  256 NGZF=  540
   ions per type =              51   2
   NGX,Y,Z   is equivalent  to a cutoff of  17.27, 17.27, 17.95 a.u.
   NGXF,Y,Z  is equivalent  to a cutoff of  34.53, 34.53, 35.91 a.u.

 SYSTEM =  unknown system                          
 POSCAR =   C  O                                   

 Startparameter for this run:
   NWRITE =      2    write-flag & timer
   PREC   = accura    normal or accurate (medium, high low for compatibility)
   ISTART =      0    job   : 0-new  1-cont  2-samecut
   ICHARG =      2    charge: 1-file 2-atom 10-const
   ISPIN  =      1    spin polarized calculation?
   LNONCOLLINEAR =      F non collinear calculations
   LSORBIT =      F    spin-orbit coupling
   INIWAV =      1    electr: 0-lowe 1-rand  2-diag
   LASPH  =      T    aspherical Exc in radial PAW
 Electronic Relaxation 1
   ENCUT  = 1000.0 eV  73.50 Ry    8.57 a.u.  31.78 31.78 64.46*2*pi/ulx,y,z
   ENINI  = 1000.0     initial cutoff
   ENAUG  =  946.8 eV  augmentation charge cutoff
   NELM   =     60;   NELMIN=  2; NELMDL= -5     # of ELM steps 
   EDIFF  = 0.1E-06   stopping-criterion for ELM
   LREAL  =      F    real-space projection
   NLSPLINE    = F    spline interpolate recip. space projectors
   LCOMPAT=      F    compatible to vasp.4.4
   GGA_COMPAT  = T    GGA compatible to vasp.4.4-vasp.4.6
   LMAXPAW     = -100 max onsite density
   LMAXMIX     =    2 max onsite mixed and CHGCAR
   VOSKOWN=      0    Vosko Wilk Nusair interpolation
   ROPT   =    0.00000   0.00000
 Ionic relaxation
   EDIFFG = 0.1E-05   stopping-criterion for IOM
   NSW    =      0    number of steps for IOM
   NBLOCK =      1;   KBLOCK =      1    inner block; outer block 
   IBRION =     -1    ionic relax: 0-MD 1-quasi-New 2-CG
   NFREE  =      0    steps in history (QN), initial steepest desc. (CG)
   ISIF   =      0    stress and relaxation
   IWAVPR =     10    prediction:  0-non 1-charg 2-wave 3-comb
   ISYM   =      2    0-nonsym 1-usesym 2-fastsym
   LCORR  =      T    Harris-Foulkes like correction to forces

   POTIM  = 0.5000    time-step for ionic-motion
   TEIN   =    0.0    initial temperature
   TEBEG  =    0.0;   TEEND  =   0.0 temperature during run
   SMASS  =  -3.00    Nose mass-parameter (am)
   estimated Nose-frequenzy (Omega)   =  0.10E-29 period in steps = 0.13E+47 mass=  -0.347E-26a.u.
   SCALEE = 1.0000    scale energy and forces
   NPACO  =    256;   APACO  = 16.0  distance and # of slots for P.C.
   PSTRESS=    0.0 pullay stress

  Mass of Ions in am
   POMASS =  12.01 16.00
  Ionic Valenz
   ZVAL   =   4.00  6.00
  Atomic Wigner-Seitz radii
   RWIGS  =  -1.00 -1.00
  virtual crystal weights 
   VCA    =   1.00  1.00
   NELECT =     216.0000    total number of electrons
   NUPDOWN=      -1.0000    fix difference up-down

 DOS related values:
   EMIN   =  10.00;   EMAX   =-10.00  energy-range for DOS
   EFERMI =   0.00
   ISMEAR =     0;   SIGMA  =   0.01  broadening in eV -4-tet -1-fermi 0-gaus

 Electronic relaxation 2 (details)
   IALGO  =     58    algorithm
   LDIAG  =      T    sub-space diagonalisation (order eigenvalues)
   LSUBROT=      F    optimize rotation matrix (better conditioning)
   TURBO    =      0    0=normal 1=particle mesh
   IRESTART =      0    0=no restart 2=restart with 2 vectors
   NREBOOT  =      0    no. of reboots
   NMIN     =      0    reboot dimension
   EREF     =   0.00    reference energy to select bands
   IMIX   =      4    mixing-type and parameters
     AMIX     =   0.40;   BMIX     =  1.00
     AMIX_MAG =   1.60;   BMIX_MAG =  1.00
     AMIN     =   0.10
     WC   =   100.;   INIMIX=   1;  MIXPRE=   1;  MAXMIX= -45

 Intra band minimization:
   WEIMIN = 0.0000     energy-eigenvalue tresh-hold
   EBREAK =  0.15E-09  absolut break condition
   DEPER  =   0.30     relativ break condition  

   TIME   =   0.40     timestep for ELM

  volume/ion in A,a.u.               =      62.05       418.76
  Fermi-wavevector in a.u.,A,eV,Ry     =   0.660508  1.248179  5.935820  0.436270
  Thomas-Fermi vector in A             =   1.732977
 
 Write flags
   LWAVE        =      T    write WAVECAR
   LDOWNSAMPLE  =      F    k-point downsampling of WAVECAR
   LCHARG       =      T    write CHGCAR
   LVTOT        =      F    write LOCPOT, total local potential
   LVHAR        =      F    write LOCPOT, Hartree potential only
   LELF         =      F    write electronic localiz. function (ELF)
   LORBIT       =      0    0 simple, 1 ext, 2 COOP (PROOUT), +10 PAW based schemes


 Dipole corrections
   LMONO  =      F    monopole corrections only (constant potential shift)
   LDIPOL =      F    correct potential (dipole corrections)
   IDIPOL =      0    1-x, 2-y, 3-z, 4-all directions 
   EPSILON=  1.0000000 bulk dielectric constant

 Exchange correlation treatment:
   GGA     =    --    GGA type
   LEXCH   =     8    internal setting for exchange type
   VOSKOWN=      0    Vosko Wilk Nusair interpolation
   LHFCALC =     F    Hartree Fock is set to
   LHFONE  =     F    Hartree Fock one center treatment
   AEXX    =    0.0000 exact exchange contribution

 Linear response parameters
   LEPSILON=     F    determine dielectric tensor
   LRPA    =     F    only Hartree local field effects (RPA)
   LNABLA  =     F    use nabla operator in PAW spheres
   LVEL    =     F    velocity operator in full k-point grid
   LINTERFAST=   F  fast interpolation
   KINTER  =     0    interpolate to denser k-point grid
   CSHIFT  =0.1000    complex shift for real part using Kramers Kronig
   OMEGAMAX=  -1.0    maximum frequency
   DEG_THRESHOLD= 0.2000000E-02 threshold for treating states as degnerate
   RTIME   =   -0.100 relaxation time in fs
  (WPLASMAI=    0.000 imaginary part of plasma frequency in eV, 0.658/RTIME)
   DFIELD  = 0.0000000 0.0000000 0.0000000 field for delta impulse in time
 
 Orbital magnetization related:
   ORBITALMAG=     F  switch on orbital magnetization
   LCHIMAG   =     F  perturbation theory with respect to B field
   DQ        =  0.001000  dq finite difference perturbation B field
   LLRAUG    =     F  two centre corrections for induced B field



--------------------------------------------------------------------------------------------------------


 Static calculation
 charge density and potential will be updated during run
 non-spin polarized calculation
 Conjugate gradient for all bands (Freysoldt, et al. PRB 79, 241103 (2009))
 preconditioned conjugated gradient                                        
 perform sub-space diagonalisation
    before iterative eigenvector-optimisation
 modified Broyden-mixing scheme, WC =      100.0
 initial mixing is a Kerker type mixing with AMIX =  0.4000 and BMIX =      1.0000
 Hartree-type preconditioning will be used
 using additional bands           60
 reciprocal scheme for non local part
 use partial core corrections
 no Harris-corrections to forces 
 use gradient corrections 
 use of overlap-Matrix (Vanderbilt PP)
 Gauss-broadening in eV      SIGMA  =   0.01


--------------------------------------------------------------------------------------------------------


  energy-cutoff  :     1000.00
  volume of cell :     3288.85
      direct lattice vectors                 reciprocal lattice vectors
    12.325000000  0.000000000  0.000000000     0.081135903  0.046843835  0.000000000
    -6.162500000 10.673763102  0.000000000     0.000000000  0.093687670  0.000000000
     0.000000000  0.000000000 25.000000000     0.000000000  0.000000000  0.040000000

  length of vectors
    12.325000000 12.325000000 25.000000000     0.093687670  0.093687670  0.040000000


 
 k-points in units of 2pi/SCALE and weight: auto                                    
   0.00000000  0.00000000  0.00000000       1.000
 
 k-points in reciprocal lattice and weights: auto                                    
   0.00000000  0.00000000  0.00000000       1.000
 
 position of ions in fractional coordinates (direct lattice) 
   0.97245084  0.00032082  0.00056671
   0.03911838  0.13365950  0.00044017
   0.17244363  0.00029545  0.00049963
   0.23909628  0.13364792  0.00025647
   0.97245206  0.20032201  0.00048522
   0.03912836  0.33364377  0.00044415
   0.17245176  0.20035455  0.00021917
   0.23912436  0.33366572  0.00007226
   0.37246557  0.00032440  0.00045391
   0.43913747  0.13361994  0.00025834
   0.97244982  0.40030936  0.00054761
   0.03912498  0.53363679  0.00057341
   0.37241618  0.40032948  0.00000000
   0.43909960  0.53363898  0.00023241
   0.57244368  0.00031213  0.00055958
   0.63911021  0.13363175  0.00054727
   0.97245270  0.60030565  0.00064029
   0.03912449  0.73364036  0.00065451
   0.57243347  0.60030624  0.00040289
   0.63911189  0.73364188  0.00052791
   0.17245463  0.40031823  0.00028904
   0.23912018  0.53363655  0.00037851
   0.37245975  0.20029599  0.00008900
   0.43910710  0.33367342  0.00005576
   0.17245216  0.60031151  0.00052434
   0.23912337  0.73363857  0.00057513
   0.57243108  0.20028917  0.00041330
   0.63911277  0.33361863  0.00046238
   0.37243981  0.60030802  0.00036284
   0.43911609  0.73363786  0.00049419
   0.57246936  0.40032050  0.00033992
   0.63911941  0.53365087  0.00045961
   0.77244572  0.00031543  0.00059616
   0.83911628  0.13364020  0.00057531
   0.77244051  0.20030743  0.00058103
   0.83912024  0.33363573  0.00058547
   0.77244632  0.40029837  0.00058298
   0.83911898  0.53363396  0.00062110
   0.77245614  0.60030817  0.00059571
   0.83911503  0.73364318  0.00063151
   0.97245531  0.80030558  0.00065223
   0.03911471  0.93364329  0.00059805
   0.17245797  0.80031221  0.00062337
   0.23913455  0.93364719  0.00054485
   0.37245140  0.80031667  0.00055140
   0.43912449  0.93364477  0.00054143
   0.57244110  0.80031005  0.00053453
   0.63911507  0.93363899  0.00058764
   0.77244510  0.80031319  0.00060206
   0.83911661  0.93364434  0.00060683
   0.37302101  0.25122688  0.31748021
   0.42087980  0.18931315  0.32005708
   0.32515698  0.31316719  0.31510202
 
 position of ions in cartesian coordinates  (Angst):
  11.98347958  0.00342433  0.01416777
  -0.34154264  1.42664989  0.01100432
   2.12354700  0.00315355  0.01249070
   2.12325634  1.42652621  0.00641170
  10.75098721  2.13818970  0.01213047
  -1.57382270  3.56123457  0.01110375
   0.89078307  2.13853702  0.00547917
   0.89099273  3.56146885  0.00180651
   4.58863896  0.00346260  0.01134782
   4.58893648  1.42622757  0.00645846
   9.51853763  4.27280730  0.01369027
  -2.80632132  5.69591267  0.01433526
   2.12299894  4.27302204  0.00000000
   2.12335237  5.69593607  0.00581036
   7.05344483  0.00333155  0.01398950
   7.05352764  1.42635365  0.01368187
   8.28609598  6.40752033  0.01600723
  -4.03884931  7.83070339  0.01636283
   3.35585531  6.40752662  0.01007237
   3.35598594  7.83071962  0.01319763
  -0.34145776  4.27290193  0.00722612
  -0.34137895  5.69591010  0.00946273
   3.35624236  2.13791198  0.00222492
   3.35573251  3.56155103  0.00139405
  -1.57394684  6.40758280  0.01310850
  -1.57385216  7.83068434  0.01437823
   5.82093107  2.13783916  0.01033241
   5.82114012  3.56096622  0.01155939
   0.89092245  6.40754561  0.00907111
   0.89106251  7.83067670  0.01235474
   4.58870974  4.27292622  0.00849795
   4.58852320  5.69606300  0.01149026
   9.51844972  0.00336679  0.01490402
   9.51855036  1.42644387  0.01438264
   8.28593477  2.13803408  0.01452582
   8.28612680  3.56114872  0.01463668
   7.05356221  4.27268994  0.01457444
   7.05362213  5.69588251  0.01552751
   5.82112285  6.40754723  0.01489279
   5.82101669  7.83073350  0.01578780
   7.05362858  8.54227219  0.01630582
  -5.27148792  9.96548729  0.01495127
  -2.80637951  8.54234295  0.01558431
  -2.80626749  9.96552896  0.01362126
  -0.34148805  8.54239058  0.01378498
  -0.34137657  9.96550309  0.01353576
   2.12342586  8.54231992  0.01336337
   2.12354296  9.96544135  0.01469111
   4.58845581  8.54235337  0.01505154
   4.58852904  9.96549848  0.01517076
   3.04929830  2.68153618  7.93700526
   4.02070129  2.02068374  8.00142712
   2.07766701  3.34267235  7.87755039
 


--------------------------------------------------------------------------------------------------------


 k-point   1 :   0.0000 0.0000 0.0000  plane waves:  236157

 maximum and minimum number of plane-waves per node :    236157   236157

 maximum number of plane-waves:    236157
 maximum index in each direction: 
   IXMAX=   31   IYMAX=   31   IZMAX=   64
   IXMIN=  -31   IYMIN=  -31   IZMIN=  -64


 serial   3D FFT for wavefunctions
 parallel 3D FFT for charge:
    minimum data exchange during FFTs selected (reduces bandwidth)


 total amount of memory used by VASP MPI-rank0   698619. kBytes
=======================================================================

   base      :      30000. kBytes
   nonl-proj :     230539. kBytes
   fftplans  :      40716. kBytes
   grid      :     363125. kBytes
   one-center:        162. kBytes
   wavefun   :      34077. kBytes
 
     INWAV:  cpu time    0.0000: real time    0.0000
 Broyden mixing: mesh for mixing (old mesh)
   NGX = 63   NGY = 63   NGZ =129
  (NGX  =256   NGY  =256   NGZ  =540)
  gives a total of 512001 points

 initial charge density was supplied:
 charge density of overlapping atoms calculated
 number of electron     216.0000000 magnetization 
 keeping initial charge density in first step


--------------------------------------------------------------------------------------------------------


 Maximum index for augmentation-charges          471 (set IRDMAX)


--------------------------------------------------------------------------------------------------------


 First call to EWALD:  gamma=   0.119
 Maximum number of real-space cells 4x 4x 2
 Maximum number of reciprocal cells 2x 2x 4

    FEWALD:  cpu time    0.0022: real time    0.0022


--------------------------------------- Iteration      1(   1)  ---------------------------------------


    POTLOK:  cpu time    1.7310: real time    1.7429
    SETDIJ:  cpu time    0.1821: real time    0.1831
    TRIAL :  cpu time   27.4378: real time   27.6394
    CORREC:  cpu time    0.0004: real time    0.0004
    --------------------------------------------
      LOOP:  cpu time   29.3594: real time   29.5984

 eigenvalue-minimisations  :   336
 total energy-change (2. order) : 0.2542352E+04  (-0.1080331E+05)
 number of electron     216.0000000 magnetization 
 augmentation part      216.0000000 magnetization 

 Free energy of the ion-electron system (eV)
  ---------------------------------------------------
  alpha Z        PSCENC =        47.94900195
  Ewald energy   TEWEN  =     41669.36851546
  -Hartree energ DENC   =    -47738.58488265
  -exchange      EXHF   =         0.00000000
  -V(xc)+E(xc)   XCENC  =       605.05707427
  PAW double counting   =      6340.10990386    -6200.63067283
  entropy T*S    EENTRO =        -0.00000000
  eigenvalues    EBANDS =      -550.44041246
  atomic energy  EATOM  =      8369.52358910
  ---------------------------------------------------
  free energy    TOTEN  =      2542.35211670 eV

  energy without entropy =     2542.35211670  energy(sigma->0) =     2542.35211670


--------------------------------------------------------------------------------------------------------




--------------------------------------- Iteration      1(   2)  ---------------------------------------


    TRIAL :  cpu time   38.9290: real time   39.2443
    CORREC:  cpu time    0.0001: real time    0.0001
    --------------------------------------------
      LOOP:  cpu time   38.9698: real time   39.2927

 eigenvalue-minimisations  :   560
 total energy-change (2. order) :-0.2481754E+04  (-0.2324192E+04)
 number of electron     216.0000000 magnetization 
 augmentation part      216.0000000 magnetization 

 Free energy of the ion-electron system (eV)
  ---------------------------------------------------
  alpha Z        PSCENC =        47.94900195
  Ewald energy   TEWEN  =     41669.36851546
  -Hartree energ DENC   =    -47738.58488265
  -exchange      EXHF   =         0.00000000
  -V(xc)+E(xc)   XCENC  =       605.05707427
  PAW double counting   =      6340.10990386    -6200.63067283
  entropy T*S    EENTRO =        -0.00000000
  eigenvalues    EBANDS =     -3032.19427523
  atomic energy  EATOM  =      8369.52358910
  ---------------------------------------------------
  free energy    TOTEN  =        60.59825393 eV

  energy without entropy =       60.59825393  energy(sigma->0) =       60.59825393


--------------------------------------------------------------------------------------------------------




--------------------------------------- Iteration      1(   3)  ---------------------------------------


    TRIAL :  cpu time   30.2325: real time   30.4928
    CORREC:  cpu time    0.0001: real time    0.0003
    --------------------------------------------
      LOOP:  cpu time   30.2720: real time   30.5357

 eigenvalue-minimisations  :   392
 total energy-change (2. order) :-0.6340121E+03  (-0.6308902E+03)
 number of electron     216.0000000 magnetization 
 augmentation part      216.0000000 magnetization 

 Free energy of the ion-electron system (eV)
  ---------------------------------------------------
  alpha Z        PSCENC =        47.94900195
  Ewald energy   TEWEN  =     41669.36851546
  -Hartree energ DENC   =    -47738.58488265
  -exchange      EXHF   =         0.00000000
  -V(xc)+E(xc)   XCENC  =       605.05707427
  PAW double counting   =      6340.10990386    -6200.63067283
  entropy T*S    EENTRO =        -0.00000000
  eigenvalues    EBANDS =     -3666.20634665
  atomic energy  EATOM  =      8369.52358910
  ---------------------------------------------------
  free energy    TOTEN  =      -573.41381749 eV

  energy without entropy =     -573.41381749  energy(sigma->0) =     -573.41381749


--------------------------------------------------------------------------------------------------------




--------------------------------------- Iteration      1(   4)  ---------------------------------------


    TRIAL :  cpu time   33.1469: real time   33.3953
    CORREC:  cpu time    0.0001: real time    0.0001
    --------------------------------------------
      LOOP:  cpu time   33.1635: real time   33.4263

 eigenvalue-minimisations  :   448
 total energy-change (2. order) :-0.3320030E+02  (-0.3294644E+02)
 number of electron     216.0000000 magnetization 
 augmentation part      216.0000000 magnetization 

 Free energy of the ion-electron system (eV)
  ---------------------------------------------------
  alpha Z        PSCENC =        47.94900195
  Ewald energy   TEWEN  =     41669.36851546
  -Hartree energ DENC   =    -47738.58488265
  -exchange      EXHF   =         0.00000000
  -V(xc)+E(xc)   XCENC  =       605.05707427
  PAW double counting   =      6340.10990386    -6200.63067283
  entropy T*S    EENTRO =        -0.00000000
  eigenvalues    EBANDS =     -3699.40664309
  atomic energy  EATOM  =      8369.52358910
  ---------------------------------------------------
  free energy    TOTEN  =      -606.61411393 eV

  energy without entropy =     -606.61411393  energy(sigma->0) =     -606.61411393


--------------------------------------------------------------------------------------------------------




--------------------------------------- Iteration      1(   5)  ---------------------------------------


    TRIAL :  cpu time   30.2471: real time   30.4731
    CORREC:  cpu time    0.0001: real time    0.0001
    CHARGE:  cpu time    2.9724: real time    2.9935
    --------------------------------------------
      LOOP:  cpu time   33.3122: real time   33.5603

 eigenvalue-minimisations  :   392
 total energy-change (2. order) :-0.1121970E+01  (-0.1120215E+01)
 number of electron     216.0000000 magnetization 
 augmentation part       -0.4500302 magnetization 

 Free energy of the ion-electron system (eV)
  ---------------------------------------------------
  alpha Z        PSCENC =        47.94900195
  Ewald energy   TEWEN  =     41669.36851546
  -Hartree energ DENC   =    -47738.58488265
  -exchange      EXHF   =         0.00000000
  -V(xc)+E(xc)   XCENC  =       605.05707427
  PAW double counting   =      6340.10990386    -6200.63067283
  entropy T*S    EENTRO =        -0.00000000
  eigenvalues    EBANDS =     -3700.52861354
  atomic energy  EATOM  =      8369.52358910
  ---------------------------------------------------
  free energy    TOTEN  =      -607.73608438 eV

  energy without entropy =     -607.73608438  energy(sigma->0) =     -607.73608438


--------------------------------------------------------------------------------------------------------




--------------------------------------- Iteration      1(   6)  ---------------------------------------


    POTLOK:  cpu time    1.6899: real time    1.7001
    SETDIJ:  cpu time    0.2075: real time    0.2083
    TRIAL :  cpu time   19.6923: real time   19.8472
    CORREC:  cpu time    8.8363: real time    8.9023
    CHARGE:  cpu time    2.9524: real time    2.9766
    --------------------------------------------
      LOOP:  cpu time   33.4399: real time   33.6980

 eigenvalue-minimisations  :     0
 total energy-change (2. order) : 0.9795919E+02  (-0.1124190E+02)
 number of electron     216.0000000 magnetization 
 augmentation part       -0.5093857 magnetization 

 Free energy of the ion-electron system (eV)
  ---------------------------------------------------
  alpha Z        PSCENC =        47.94900195
  Ewald energy   TEWEN  =     41669.36851546
  -Hartree energ DENC   =    -49081.23106853
  -exchange      EXHF   =         0.00000000
  -V(xc)+E(xc)   XCENC  =       676.76295343
  PAW double counting   =    119493.83883844  -119354.24787408
  entropy T*S    EENTRO =        -0.00000000
  eigenvalues    EBANDS =     -2331.74085504
  atomic energy  EATOM  =      8369.52358910
  ---------------------------------------------------
  free energy    TOTEN  =      -509.77689927 eV

  energy without entropy =     -509.77689927  energy(sigma->0) =     -509.77689927


--------------------------------------------------------------------------------------------------------




--------------------------------------- Iteration      1(   7)  ---------------------------------------


    POTLOK:  cpu time    1.6881: real time    1.6995
    SETDIJ:  cpu time    0.1977: real time    0.1984
    TRIAL :  cpu time   19.6596: real time   19.8103
    CORREC:  cpu time    8.8379: real time    8.9010
    CHARGE:  cpu time    2.9607: real time    2.9830
    --------------------------------------------
      LOOP:  cpu time   33.3676: real time   33.6348

 eigenvalue-minimisations  :     0
 total energy-change (2. order) :-0.1125693E+02  (-0.1479702E+01)
 number of electron     216.0000000 magnetization 
 augmentation part       -0.5422230 magnetization 

 Free energy of the ion-electron system (eV)
  ---------------------------------------------------
  alpha Z        PSCENC =        47.94900195
  Ewald energy   TEWEN  =     41669.36851546
  -Hartree energ DENC   =    -48672.76457810
  -exchange      EXHF   =         0.00000000
  -V(xc)+E(xc)   XCENC  =       659.17112941
  PAW double counting   =    138712.84312406  -138571.51794168
  entropy T*S    EENTRO =        -0.00000000
  eigenvalues    EBANDS =     -2735.60666764
  atomic energy  EATOM  =      8369.52358910
  ---------------------------------------------------
  free energy    TOTEN  =      -521.03382744 eV

  energy without entropy =     -521.03382744  energy(sigma->0) =     -521.03382744


--------------------------------------------------------------------------------------------------------




--------------------------------------- Iteration      1(   8)  ---------------------------------------


    POTLOK:  cpu time    1.6877: real time    1.6974
    SETDIJ:  cpu time    0.1992: real time    0.1999
    TRIAL :  cpu time   19.6691: real time   19.8172
    CORREC:  cpu time    8.8472: real time    8.9057
    CHARGE:  cpu time    2.9521: real time    2.9723
    --------------------------------------------
      LOOP:  cpu time   33.3836: real time   33.6221

 eigenvalue-minimisations  :     0
 total energy-change (2. order) :-0.1479235E+01  (-0.4786846E+00)
 number of electron     216.0000000 magnetization 
 augmentation part       -0.5433906 magnetization 

 Free energy of the ion-electron system (eV)
  ---------------------------------------------------
  alpha Z        PSCENC =        47.94900195
  Ewald energy   TEWEN  =     41669.36851546
  -Hartree energ DENC   =    -48641.88336340
  -exchange      EXHF   =         0.00000000
  -V(xc)+E(xc)   XCENC  =       658.07401423
  PAW double counting   =    148269.59799956  -148128.14699281
  entropy T*S    EENTRO =        -0.00000000
  eigenvalues    EBANDS =     -2766.99582638
  atomic energy  EATOM  =      8369.52358910
  ---------------------------------------------------
  free energy    TOTEN  =      -522.51306229 eV

  energy without entropy =     -522.51306229  energy(sigma->0) =     -522.51306229


--------------------------------------------------------------------------------------------------------




--------------------------------------- Iteration      1(   9)  ---------------------------------------


    POTLOK:  cpu time    1.6877: real time    1.7014
    SETDIJ:  cpu time    0.1936: real time    0.1943
    TRIAL :  cpu time   19.6556: real time   19.8283
    CORREC:  cpu time    8.8561: real time    8.9140
    CHARGE:  cpu time    2.9553: real time    2.9777
    --------------------------------------------
      LOOP:  cpu time   33.3969: real time   33.6664

 eigenvalue-minimisations  :     0
 total energy-change (2. order) :-0.4784222E+00  (-0.1929687E+00)
 number of electron     216.0000000 magnetization 
 augmentation part       -0.5401095 magnetization 

 Free energy of the ion-electron system (eV)
  ---------------------------------------------------
  alpha Z        PSCENC =        47.94900195
  Ewald energy   TEWEN  =     41669.36851546
  -Hartree energ DENC   =    -48648.85004611
  -exchange      EXHF   =         0.00000000
  -V(xc)+E(xc)   XCENC  =       658.02279453
  PAW double counting   =    156249.43492096  -156107.91223227
  entropy T*S    EENTRO =        -0.00000000
  eigenvalues    EBANDS =     -2760.52802812
  atomic energy  EATOM  =      8369.52358910
  ---------------------------------------------------
  free energy    TOTEN  =      -522.99148451 eV

  energy without entropy =     -522.99148451  energy(sigma->0) =     -522.99148451


--------------------------------------------------------------------------------------------------------




--------------------------------------- Iteration      1(  10)  ---------------------------------------


    POTLOK:  cpu time    1.6892: real time    1.6989
    SETDIJ:  cpu time    0.1960: real time    0.1967
    TRIAL :  cpu time   19.6833: real time   19.8314
    CORREC:  cpu time    8.8427: real time    8.9072
    CHARGE:  cpu time    2.9526: real time    2.9799
    --------------------------------------------
      LOOP:  cpu time   33.4556: real time   33.7123

 eigenvalue-minimisations  :     0
 total energy-change (2. order) :-0.1926864E+00  (-0.8415314E-01)
 number of electron     216.0000000 magnetization 
 augmentation part       -0.5344397 magnetization 

 Free energy of the ion-electron system (eV)
  ---------------------------------------------------
  alpha Z        PSCENC =        47.94900195
  Ewald energy   TEWEN  =     41669.36851546
  -Hartree energ DENC   =    -48648.28805875
  -exchange      EXHF   =         0.00000000
  -V(xc)+E(xc)   XCENC  =       657.92788223
  PAW double counting   =    160208.18545287  -160066.61237045
  entropy T*S    EENTRO =        -0.00000000
  eigenvalues    EBANDS =     -2761.23818328
  atomic energy  EATOM  =      8369.52358910
  ---------------------------------------------------
  free energy    TOTEN  =      -523.18417086 eV

  energy without entropy =     -523.18417086  energy(sigma->0) =     -523.18417086


--------------------------------------------------------------------------------------------------------




--------------------------------------- Iteration      1(  11)  ---------------------------------------


    POTLOK:  cpu time    1.6952: real time    1.7059
    SETDIJ:  cpu time    0.1904: real time    0.1911
    TRIAL :  cpu time   19.6669: real time   19.8125
    CORREC:  cpu time    8.8414: real time    8.9123
    CHARGE:  cpu time    2.9602: real time    2.9824
    --------------------------------------------
      LOOP:  cpu time   33.4076: real time   33.6589

 eigenvalue-minimisations  :     0
 total energy-change (2. order) :-0.8396326E-01  (-0.3233848E-01)
 number of electron     216.0000000 magnetization 
 augmentation part       -0.5306510 magnetization 

 Free energy of the ion-electron system (eV)
  ---------------------------------------------------
  alpha Z        PSCENC =        47.94900195
  Ewald energy   TEWEN  =     41669.36851546
  -Hartree energ DENC   =    -48642.31518936
  -exchange      EXHF   =         0.00000000
  -V(xc)+E(xc)   XCENC  =       657.85899864
  PAW double counting   =    160840.41892167  -160698.86618868
  entropy T*S    EENTRO =        -0.00000000
  eigenvalues    EBANDS =     -2767.20578291
  atomic energy  EATOM  =      8369.52358910
  ---------------------------------------------------
  free energy    TOTEN  =      -523.26813413 eV

  energy without entropy =     -523.26813413  energy(sigma->0) =     -523.26813413


--------------------------------------------------------------------------------------------------------




--------------------------------------- Iteration      1(  12)  ---------------------------------------


    POTLOK:  cpu time    1.6905: real time    1.7008
    SETDIJ:  cpu time    0.1949: real time    0.1955
    TRIAL :  cpu time   19.6759: real time   19.8139
    CORREC:  cpu time    8.8377: real time    8.8999
    CHARGE:  cpu time    2.9583: real time    2.9809
    --------------------------------------------
      LOOP:  cpu time   33.3705: real time   33.6120

 eigenvalue-minimisations  :     0
 total energy-change (2. order) :-0.3229094E-01  (-0.1005676E-01)
 number of electron     216.0000000 magnetization 
 augmentation part       -0.5303595 magnetization 

 Free energy of the ion-electron system (eV)
  ---------------------------------------------------
  alpha Z        PSCENC =        47.94900195
  Ewald energy   TEWEN  =     41669.36851546
  -Hartree energ DENC   =    -48637.69971412
  -exchange      EXHF   =         0.00000000
  -V(xc)+E(xc)   XCENC  =       657.78750323
  PAW double counting   =    160222.73990605  -160081.21343343
  entropy T*S    EENTRO =        -0.00000000
  eigenvalues    EBANDS =     -2771.75579332
  atomic energy  EATOM  =      8369.52358910
  ---------------------------------------------------
  free energy    TOTEN  =      -523.30042507 eV

  energy without entropy =     -523.30042507  energy(sigma->0) =     -523.30042507


--------------------------------------------------------------------------------------------------------




--------------------------------------- Iteration      1(  13)  ---------------------------------------


    POTLOK:  cpu time    1.6900: real time    1.7007
    SETDIJ:  cpu time    0.1976: real time    0.1983
    TRIAL :  cpu time   19.6724: real time   19.8250
    CORREC:  cpu time    8.8284: real time    8.9063
    CHARGE:  cpu time    2.9630: real time    2.9855
    --------------------------------------------
      LOOP:  cpu time   33.3797: real time   33.6488

 eigenvalue-minimisations  :     0
 total energy-change (2. order) :-0.1003856E-01  (-0.2804280E-02)
 number of electron     216.0000000 magnetization 
 augmentation part       -0.5308791 magnetization 

 Free energy of the ion-electron system (eV)
  ---------------------------------------------------
  alpha Z        PSCENC =        47.94900195
  Ewald energy   TEWEN  =     41669.36851546
  -Hartree energ DENC   =    -48636.47019566
  -exchange      EXHF   =         0.00000000
  -V(xc)+E(xc)   XCENC  =       657.74291450
  PAW double counting   =    159497.27255955  -159355.75099198
  entropy T*S    EENTRO =        -0.00000000
  eigenvalues    EBANDS =     -2772.94585655
  atomic energy  EATOM  =      8369.52358910
  ---------------------------------------------------
  free energy    TOTEN  =      -523.31046363 eV

  energy without entropy =     -523.31046363  energy(sigma->0) =     -523.31046363


--------------------------------------------------------------------------------------------------------




--------------------------------------- Iteration      1(  14)  ---------------------------------------


    POTLOK:  cpu time    1.6889: real time    1.6998
    SETDIJ:  cpu time    0.1950: real time    0.1956
    TRIAL :  cpu time   19.6987: real time   19.8354
    CORREC:  cpu time    8.8611: real time    8.9233
    CHARGE:  cpu time    2.9578: real time    2.9780
    --------------------------------------------
      LOOP:  cpu time   33.4413: real time   33.6852

 eigenvalue-minimisations  :     0
 total energy-change (2. order) :-0.2793353E-02  (-0.7900138E-03)
 number of electron     216.0000000 magnetization 
 augmentation part       -0.5311966 magnetization 

 Free energy of the ion-electron system (eV)
  ---------------------------------------------------
  alpha Z        PSCENC =        47.94900195
  Ewald energy   TEWEN  =     41669.36851546
  -Hartree energ DENC   =    -48636.58348165
  -exchange      EXHF   =         0.00000000
  -V(xc)+E(xc)   XCENC  =       657.73112171
  PAW double counting   =    159070.39876798  -158928.87582769
  entropy T*S    EENTRO =        -0.00000000
  eigenvalues    EBANDS =     -2772.82494386
  atomic energy  EATOM  =      8369.52358910
  ---------------------------------------------------
  free energy    TOTEN  =      -523.31325699 eV

  energy without entropy =     -523.31325699  energy(sigma->0) =     -523.31325699


--------------------------------------------------------------------------------------------------------




--------------------------------------- Iteration      1(  15)  ---------------------------------------


    POTLOK:  cpu time    1.6901: real time    1.6997
    SETDIJ:  cpu time    0.1990: real time    0.1997
    TRIAL :  cpu time   19.6801: real time   19.8277
    CORREC:  cpu time    8.8475: real time    8.9068
    CHARGE:  cpu time    2.9588: real time    2.9820
    --------------------------------------------
      LOOP:  cpu time   33.4363: real time   33.6797

 eigenvalue-minimisations  :     0
 total energy-change (2. order) :-0.7848326E-03  (-0.2378194E-03)
 number of electron     216.0000000 magnetization 
 augmentation part       -0.5314253 magnetization 

 Free energy of the ion-electron system (eV)
  ---------------------------------------------------
  alpha Z        PSCENC =        47.94900195
  Ewald energy   TEWEN  =     41669.36851546
  -Hartree energ DENC   =    -48636.50402160
  -exchange      EXHF   =         0.00000000
  -V(xc)+E(xc)   XCENC  =       657.72492457
  PAW double counting   =    158858.10099365  -158716.57679683
  entropy T*S    EENTRO =        -0.00000000
  eigenvalues    EBANDS =     -2772.90024812
  atomic energy  EATOM  =      8369.52358910
  ---------------------------------------------------
  free energy    TOTEN  =      -523.31404182 eV

  energy without entropy =     -523.31404182  energy(sigma->0) =     -523.31404182


--------------------------------------------------------------------------------------------------------




--------------------------------------- Iteration      1(  16)  ---------------------------------------


    POTLOK:  cpu time    1.6905: real time    1.7005
    SETDIJ:  cpu time    0.1991: real time    0.1999
    TRIAL :  cpu time   19.6867: real time   19.8310
    CORREC:  cpu time    8.8567: real time    8.9193
    CHARGE:  cpu time    2.9585: real time    2.9813
    --------------------------------------------
      LOOP:  cpu time   33.4309: real time   33.6743

 eigenvalue-minimisations  :     0
 total energy-change (2. order) :-0.2354115E-03  (-0.8476275E-04)
 number of electron     216.0000000 magnetization 
 augmentation part       -0.5315307 magnetization 

 Free energy of the ion-electron system (eV)
  ---------------------------------------------------
  alpha Z        PSCENC =        47.94900195
  Ewald energy   TEWEN  =     41669.36851546
  -Hartree energ DENC   =    -48636.41811220
  -exchange      EXHF   =         0.00000000
  -V(xc)+E(xc)   XCENC  =       657.71965625
  PAW double counting   =    158738.24955388  -158596.72373225
  entropy T*S    EENTRO =        -0.00000000
  eigenvalues    EBANDS =     -2772.98274942
  atomic energy  EATOM  =      8369.52358910
  ---------------------------------------------------
  free energy    TOTEN  =      -523.31427723 eV

  energy without entropy =     -523.31427723  energy(sigma->0) =     -523.31427723


--------------------------------------------------------------------------------------------------------




--------------------------------------- Iteration      1(  17)  ---------------------------------------


    POTLOK:  cpu time    1.6901: real time    1.6999
    SETDIJ:  cpu time    0.1998: real time    0.2006
    TRIAL :  cpu time   19.6784: real time   19.8214
    CORREC:  cpu time    8.8441: real time    8.9050
    CHARGE:  cpu time    2.9539: real time    2.9751
    --------------------------------------------
      LOOP:  cpu time   33.4393: real time   33.6772

 eigenvalue-minimisations  :     0
 total energy-change (2. order) :-0.8340058E-04  (-0.3392626E-04)
 number of electron     216.0000000 magnetization 
 augmentation part       -0.5315726 magnetization 

 Free energy of the ion-electron system (eV)
  ---------------------------------------------------
  alpha Z        PSCENC =        47.94900195
  Ewald energy   TEWEN  =     41669.36851546
  -Hartree energ DENC   =    -48636.58003383
  -exchange      EXHF   =         0.00000000
  -V(xc)+E(xc)   XCENC  =       657.72616109
  PAW double counting   =    158666.10761521  -158524.58161391
  entropy T*S    EENTRO =        -0.00000000
  eigenvalues    EBANDS =     -2772.82759571
  atomic energy  EATOM  =      8369.52358910
  ---------------------------------------------------
  free energy    TOTEN  =      -523.31436063 eV

  energy without entropy =     -523.31436063  energy(sigma->0) =     -523.31436063


--------------------------------------------------------------------------------------------------------




--------------------------------------- Iteration      1(  18)  ---------------------------------------


    POTLOK:  cpu time    1.6921: real time    1.7021
    SETDIJ:  cpu time    0.1931: real time    0.1938
    TRIAL :  cpu time   19.6777: real time   19.8290
    CORREC:  cpu time    8.8476: real time    8.9136
    CHARGE:  cpu time    2.9655: real time    2.9876
    --------------------------------------------
      LOOP:  cpu time   33.4158: real time   33.6668

 eigenvalue-minimisations  :     0
 total energy-change (2. order) :-0.3411618E-04  (-0.1293231E-04)
 number of electron     216.0000000 magnetization 
 augmentation part       -0.5315918 magnetization 

 Free energy of the ion-electron system (eV)
  ---------------------------------------------------
  alpha Z        PSCENC =        47.94900195
  Ewald energy   TEWEN  =     41669.36851546
  -Hartree energ DENC   =    -48636.64432382
  -exchange      EXHF   =         0.00000000
  -V(xc)+E(xc)   XCENC  =       657.72859858
  PAW double counting   =    158641.40124716  -158499.87497832
  entropy T*S    EENTRO =        -0.00000000
  eigenvalues    EBANDS =     -2772.76604486
  atomic energy  EATOM  =      8369.52358910
  ---------------------------------------------------
  free energy    TOTEN  =      -523.31439475 eV

  energy without entropy =     -523.31439475  energy(sigma->0) =     -523.31439475


--------------------------------------------------------------------------------------------------------




--------------------------------------- Iteration      1(  19)  ---------------------------------------


    POTLOK:  cpu time    1.6910: real time    1.7009
    SETDIJ:  cpu time    0.1963: real time    0.1970
    TRIAL :  cpu time   19.6691: real time   19.8106
    CORREC:  cpu time    8.8450: real time    8.9083
    CHARGE:  cpu time    2.9607: real time    2.9817
    --------------------------------------------
      LOOP:  cpu time   33.4028: real time   33.6454

 eigenvalue-minimisations  :     0
 total energy-change (2. order) :-0.1336579E-04  (-0.4748038E-05)
 number of electron     216.0000000 magnetization 
 augmentation part       -0.5315879 magnetization 

 Free energy of the ion-electron system (eV)
  ---------------------------------------------------
  alpha Z        PSCENC =        47.94900195
  Ewald energy   TEWEN  =     41669.36851546
  -Hartree energ DENC   =    -48636.64028286
  -exchange      EXHF   =         0.00000000
  -V(xc)+E(xc)   XCENC  =       657.72817750
  PAW double counting   =    158648.00682959  -158506.48028793
  entropy T*S    EENTRO =        -0.00000000
  eigenvalues    EBANDS =     -2772.76995093
  atomic energy  EATOM  =      8369.52358910
  ---------------------------------------------------
  free energy    TOTEN  =      -523.31440811 eV

  energy without entropy =     -523.31440811  energy(sigma->0) =     -523.31440811


--------------------------------------------------------------------------------------------------------




--------------------------------------- Iteration      1(  20)  ---------------------------------------


    POTLOK:  cpu time    1.6883: real time    1.6984
    SETDIJ:  cpu time    0.2063: real time    0.2070
    TRIAL :  cpu time   19.6946: real time   19.8355
    CORREC:  cpu time    8.8482: real time    8.9103
    CHARGE:  cpu time    2.9603: real time    2.9813
    --------------------------------------------
      LOOP:  cpu time   33.4628: real time   33.6990

 eigenvalue-minimisations  :     0
 total energy-change (2. order) :-0.4891510E-05  (-0.1717457E-05)
 number of electron     216.0000000 magnetization 
 augmentation part       -0.5315801 magnetization 

 Free energy of the ion-electron system (eV)
  ---------------------------------------------------
  alpha Z        PSCENC =        47.94900195
  Ewald energy   TEWEN  =     41669.36851546
  -Hartree energ DENC   =    -48636.66269247
  -exchange      EXHF   =         0.00000000
  -V(xc)+E(xc)   XCENC  =       657.72908628
  PAW double counting   =    158661.96292218  -158520.43645444
  entropy T*S    EENTRO =        -0.00000000
  eigenvalues    EBANDS =     -2772.74838106
  atomic energy  EATOM  =      8369.52358910
  ---------------------------------------------------
  free energy    TOTEN  =      -523.31441300 eV

  energy without entropy =     -523.31441300  energy(sigma->0) =     -523.31441300


--------------------------------------------------------------------------------------------------------




--------------------------------------- Iteration      1(  21)  ---------------------------------------


    POTLOK:  cpu time    1.6901: real time    1.7002
    SETDIJ:  cpu time    0.1985: real time    0.1992
    TRIAL :  cpu time   19.6704: real time   19.8175
    CORREC:  cpu time    8.8465: real time    8.9100
    CHARGE:  cpu time    2.9525: real time    2.9733
    --------------------------------------------
      LOOP:  cpu time   33.3824: real time   33.6277

 eigenvalue-minimisations  :     0
 total energy-change (2. order) :-0.1752313E-05  (-0.6401722E-06)
 number of electron     216.0000000 magnetization 
 augmentation part       -0.5315669 magnetization 

 Free energy of the ion-electron system (eV)
  ---------------------------------------------------
  alpha Z        PSCENC =        47.94900195
  Ewald energy   TEWEN  =     41669.36851546
  -Hartree energ DENC   =    -48636.66764890
  -exchange      EXHF   =         0.00000000
  -V(xc)+E(xc)   XCENC  =       657.72907784
  PAW double counting   =    158673.07529394  -158531.54886925
  entropy T*S    EENTRO =        -0.00000000
  eigenvalues    EBANDS =     -2772.74337491
  atomic energy  EATOM  =      8369.52358910
  ---------------------------------------------------
  free energy    TOTEN  =      -523.31441476 eV

  energy without entropy =     -523.31441476  energy(sigma->0) =     -523.31441476


--------------------------------------------------------------------------------------------------------




--------------------------------------- Iteration      1(  22)  ---------------------------------------


    POTLOK:  cpu time    1.6905: real time    1.7000
    SETDIJ:  cpu time    0.2002: real time    0.2009
    TRIAL :  cpu time   19.6652: real time   19.8145
    CORREC:  cpu time    8.8566: real time    8.9153
    CHARGE:  cpu time    2.9567: real time    2.9772
    --------------------------------------------
      LOOP:  cpu time   33.4066: real time   33.6477

 eigenvalue-minimisations  :     0
 total energy-change (2. order) :-0.6294285E-06  (-0.3207018E-06)
 number of electron     216.0000000 magnetization 
 augmentation part       -0.5315559 magnetization 

 Free energy of the ion-electron system (eV)
  ---------------------------------------------------
  alpha Z        PSCENC =        47.94900195
  Ewald energy   TEWEN  =     41669.36851546
  -Hartree energ DENC   =    -48636.66349801
  -exchange      EXHF   =         0.00000000
  -V(xc)+E(xc)   XCENC  =       657.72890784
  PAW double counting   =    158679.14228021  -158537.61593310
  entropy T*S    EENTRO =        -0.00000000
  eigenvalues    EBANDS =     -2772.74727883
  atomic energy  EATOM  =      8369.52358910
  ---------------------------------------------------
  free energy    TOTEN  =      -523.31441539 eV

  energy without entropy =     -523.31441539  energy(sigma->0) =     -523.31441539


--------------------------------------------------------------------------------------------------------




--------------------------------------- Iteration      1(  23)  ---------------------------------------


    POTLOK:  cpu time    1.6889: real time    1.6989
    SETDIJ:  cpu time    0.1997: real time    0.2005
    TRIAL :  cpu time   19.6869: real time   19.8386
    CORREC:  cpu time    8.8641: real time    8.9246
    CHARGE:  cpu time    2.9608: real time    2.9817
    --------------------------------------------
      LOOP:  cpu time   33.4461: real time   33.6943

 eigenvalue-minimisations  :     0
 total energy-change (2. order) :-0.2600427E-06  (-0.2639096E-06)
 number of electron     216.0000000 magnetization 
 augmentation part       -0.5315552 magnetization 

 Free energy of the ion-electron system (eV)
  ---------------------------------------------------
  alpha Z        PSCENC =        47.94900195
  Ewald energy   TEWEN  =     41669.36851546
  -Hartree energ DENC   =    -48636.66018088
  -exchange      EXHF   =         0.00000000
  -V(xc)+E(xc)   XCENC  =       657.72883932
  PAW double counting   =    158682.52880112  -158541.00252920
  entropy T*S    EENTRO =        -0.00000000
  eigenvalues    EBANDS =     -2772.75045252
  atomic energy  EATOM  =      8369.52358910
  ---------------------------------------------------
  free energy    TOTEN  =      -523.31441565 eV

  energy without entropy =     -523.31441565  energy(sigma->0) =     -523.31441565


--------------------------------------------------------------------------------------------------------




--------------------------------------- Iteration      1(  24)  ---------------------------------------


    POTLOK:  cpu time    1.6912: real time    1.7009
    SETDIJ:  cpu time    0.2011: real time    0.2018
    TRIAL :  cpu time   19.6719: real time   19.8137
    CORREC:  cpu time    8.8465: real time    8.9048
    CHARGE:  cpu time    2.9553: real time    2.9757
    --------------------------------------------
      LOOP:  cpu time   33.3905: real time   33.6493

 eigenvalue-minimisations  :     0
 total energy-change (2. order) : 0.1404260E-06  (-0.2564639E-06)
 number of electron     216.0000000 magnetization 
 augmentation part       -0.5315542 magnetization 

 Free energy of the ion-electron system (eV)
  ---------------------------------------------------
  alpha Z        PSCENC =        47.94900195
  Ewald energy   TEWEN  =     41669.36851546
  -Hartree energ DENC   =    -48636.65213318
  -exchange      EXHF   =         0.00000000
  -V(xc)+E(xc)   XCENC  =       657.72853824
  PAW double counting   =    158685.67407836  -158544.14781734
  entropy T*S    EENTRO =        -0.00000000
  eigenvalues    EBANDS =     -2772.75818810
  atomic energy  EATOM  =      8369.52358910
  ---------------------------------------------------
  free energy    TOTEN  =      -523.31441551 eV

  energy without entropy =     -523.31441551  energy(sigma->0) =     -523.31441551


--------------------------------------------------------------------------------------------------------




--------------------------------------- Iteration      1(  25)  ---------------------------------------


    POTLOK:  cpu time    1.6918: real time    1.7013
    SETDIJ:  cpu time    0.1937: real time    0.1944
    TRIAL :  cpu time   19.6701: real time   19.8087
    CORREC:  cpu time    8.7376: real time    8.7943
    CHARGE:  cpu time    2.9710: real time    2.9911
    --------------------------------------------
      LOOP:  cpu time   33.3331: real time   33.5592

 eigenvalue-minimisations  :     0
 total energy-change (2. order) :-0.2220622E-06  ( 0.1280401E-05)
 number of electron     216.0000000 magnetization 
 augmentation part       -0.5315591 magnetization 

 Free energy of the ion-electron system (eV)
  ---------------------------------------------------
  alpha Z        PSCENC =        47.94900195
  Ewald energy   TEWEN  =     41669.36851546
  -Hartree energ DENC   =    -48636.65595936
  -exchange      EXHF   =         0.00000000
  -V(xc)+E(xc)   XCENC  =       657.72881370
  PAW double counting   =    158684.98951336  -158543.46328516
  entropy T*S    EENTRO =        -0.00000000
  eigenvalues    EBANDS =     -2772.75460478
  atomic energy  EATOM  =      8369.52358910
  ---------------------------------------------------
  free energy    TOTEN  =      -523.31441573 eV

  energy without entropy =     -523.31441573  energy(sigma->0) =     -523.31441573


--------------------------------------------------------------------------------------------------------




--------------------------------------- Iteration      1(  26)  ---------------------------------------


    POTLOK:  cpu time    1.6908: real time    1.7005
    SETDIJ:  cpu time    0.1981: real time    0.1987
    TRIAL :  cpu time   19.6893: real time   19.8307
    CORREC:  cpu time    8.7542: real time    8.8143
    EDDIAG:  cpu time    4.0786: real time    4.1109
    CHARGE:  cpu time    2.9591: real time    2.9796
    --------------------------------------------
      LOOP:  cpu time   37.4165: real time   37.6840

 eigenvalue-minimisations  :     0
 total energy-change (2. order) :-0.5614129E-07  ( 0.6686756E-08)
 number of electron     216.0000000 magnetization 
 augmentation part       -0.5315604 magnetization 

 Free energy of the ion-electron system (eV)
  ---------------------------------------------------
  alpha Z        PSCENC =        47.94900195
  Ewald energy   TEWEN  =     41669.36851546
  -Hartree energ DENC   =    -48636.65405844
  -exchange      EXHF   =         0.00000000
  -V(xc)+E(xc)   XCENC  =       657.72864575
  PAW double counting   =    158684.32626225  -158542.79998643
  entropy T*S    EENTRO =        -0.00000000
  eigenvalues    EBANDS =     -2772.75638542
  atomic energy  EATOM  =      8369.52358910
  ---------------------------------------------------
  free energy    TOTEN  =      -523.31441578 eV

  energy without entropy =     -523.31441578  energy(sigma->0) =     -523.31441578


--------------------------------------------------------------------------------------------------------


  average scaling for gradient   0.8558


 average (electrostatic) potential at core
  the test charge radii are     0.5770  0.5955
  (the norm of the test charge is              1.0000)
       1 -87.9771       2 -87.9766       3 -87.9771       4 -87.9776       5 -87.9760
       6 -87.9759       7 -87.9770       8 -87.9760       9 -87.9764      10 -87.9766
      11 -87.9759      12 -87.9759      13 -87.9765      14 -87.9762      15 -87.9758
      16 -87.9760      17 -87.9764      18 -87.9768      19 -87.9769      20 -87.9764
      21 -87.9758      22 -87.9757      23 -87.9779      24 -87.9778      25 -87.9758
      26 -87.9759      27 -87.9763      28 -87.9772      29 -87.9757      30 -87.9757
      31 -87.9772      32 -87.9768      33 -87.9761      34 -87.9760      35 -87.9760
      36 -87.9761      37 -87.9766      38 -87.9768      39 -87.9767      40 -87.9768
      41 -87.9768      42 -87.9769      43 -87.9765      44 -87.9771      45 -87.9758
      46 -87.9759      47 -87.9759      48 -87.9759      49 -87.9769      50 -87.9766
      51 -91.8731      52-124.2563      53-124.2555
 
 
 
 E-fermi :  -4.3658     XC(G=0):  -1.8856     alpha+bet : -1.6890

 Fermi energy:        -4.3658241892

 k-point     1 :       0.0000    0.0000    0.0000
  band No.  band energies     occupation 
      1     -29.1530      2.00000
      2     -28.0444      2.00000
      3     -23.6831      2.00000
      4     -22.6909      2.00000
      5     -22.6895      2.00000
      6     -22.6892      2.00000
      7     -22.6890      2.00000
      8     -22.6889      2.00000
      9     -22.6883      2.00000
     10     -20.7437      2.00000
     11     -20.7436      2.00000
     12     -20.7434      2.00000
     13     -20.7427      2.00000
     14     -20.7422      2.00000
     15     -20.7419      2.00000
     16     -19.8009      2.00000
     17     -19.8007      2.00000
     18     -19.8003      2.00000
     19     -19.8001      2.00000
     20     -19.7993      2.00000
     21     -19.7990      2.00000
     22     -17.5603      2.00000
     23     -17.5599      2.00000
     24     -17.5592      2.00000
     25     -17.5590      2.00000
     26     -17.5585      2.00000
     27     -17.5584      2.00000
     28     -16.3920      2.00000
     29     -16.3920      2.00000
     30     -16.3909      2.00000
     31     -16.3907      2.00000
     32     -16.3903      2.00000
     33     -16.3902      2.00000
     34     -14.9851      2.00000
     35     -14.9850      2.00000
     36     -14.9843      2.00000
     37     -14.9841      2.00000
     38     -14.9841      2.00000
     39     -14.9838      2.00000
     40     -13.2135      2.00000
     41     -12.4932      2.00000
     42     -12.4929      2.00000
     43     -12.4925      2.00000
     44     -12.4924      2.00000
     45     -12.4912      2.00000
     46     -12.4910      2.00000
     47     -12.2856      2.00000
     48     -12.2855      2.00000
     49     -12.2848      2.00000
     50     -12.2847      2.00000
     51     -12.2846      2.00000
     52     -12.2845      2.00000
     53     -11.8682      2.00000
     54     -11.6732      2.00000
     55     -11.6731      2.00000
     56     -10.9766      2.00000
     57     -10.8232      2.00000
     58     -10.8230      2.00000
     59     -10.8213      2.00000
     60     -10.8210      2.00000
     61     -10.8208      2.00000
     62     -10.8207      2.00000
     63      -9.8000      2.00000
     64      -9.7990      2.00000
     65      -9.7988      2.00000
     66      -9.7984      2.00000
     67      -9.7982      2.00000
     68      -9.7981      2.00000
     69      -9.4915      2.00000
     70      -9.4904      2.00000
     71      -9.4900      2.00000
     72      -9.4899      2.00000
     73      -9.4895      2.00000
     74      -9.4894      2.00000
     75      -9.4850      2.00000
     76      -9.4847      2.00000
     77      -9.4839      2.00000
     78      -9.4836      2.00000
     79      -9.4835      2.00000
     80      -9.4828      2.00000
     81      -8.0356      2.00000
     82      -8.0355      2.00000
     83      -7.7465      2.00000
     84      -7.7447      2.00000
     85      -7.7446      2.00000
     86      -7.7442      2.00000
     87      -7.7432      2.00000
     88      -7.7432      2.00000
     89      -7.5519      2.00000
     90      -7.5516      2.00000
     91      -7.5514      2.00000
     92      -7.5510      2.00000
     93      -7.5506      2.00000
     94      -7.5504      2.00000
     95      -6.6064      2.00000
     96      -6.6063      2.00000
     97      -6.6060      2.00000
     98      -6.6059      2.00000
     99      -6.6052      2.00000
    100      -6.6050      2.00000
    101      -6.1744      2.00000
    102      -6.1721      2.00000
    103      -4.5069      2.00000
    104      -4.5065      2.00000
    105      -4.5060      2.00000
    106      -4.5059      2.00000
    107      -4.5053      2.00000
    108      -4.5052      2.00000
    109      -1.5130      0.00000
    110      -1.5128      0.00000
    111      -1.5125      0.00000
    112      -1.5124      0.00000
    113      -1.5117      0.00000
    114      -1.5113      0.00000
    115       0.4788      0.00000
    116       0.4791      0.00000
    117       0.4795      0.00000
    118       0.4796      0.00000
    119       0.4799      0.00000
    120       0.4812      0.00000
    121       0.7114      0.00000
    122       0.9825      0.00000
    123       1.1857      0.00000
    124       1.1857      0.00000
    125       1.4451      0.00000
    126       1.7780      0.00000
    127       2.0321      0.00000
    128       2.0357      0.00000
    129       2.0428      0.00000
    130       2.0481      0.00000
    131       2.0513      0.00000
    132       2.0525      0.00000
    133       2.2174      0.00000
    134       2.3461      0.00000
    135       2.3463      0.00000
    136       2.3466      0.00000
    137       2.3470      0.00000
    138       2.3472      0.00000
    139       2.3476      0.00000
    140       2.3881      0.00000
    141       2.5972      0.00000
    142       2.7047      0.00000
    143       2.7207      0.00000
    144       2.7290      0.00000
    145       2.7318      0.00000
    146       2.7418      0.00000
    147       2.7523      0.00000
    148       2.7985      0.00000
    149       2.8071      0.00000
    150       2.8097      0.00000
    151       2.8324      0.00000
    152       3.1640      0.00000
    153       3.4894      0.00000
    154       3.6383      0.00000
    155       3.8066      0.00000
    156       3.8463      0.00000
    157       4.0208      0.00000
    158       4.0970      0.00000
    159       4.1798      0.00000
    160       4.3723      0.00000
    161       4.5258      0.00000
    162       4.6267      0.00000
    163       4.8113      0.00000
    164       4.8493      0.00000
    165       4.8663      0.00000
    166       4.8776      0.00000
    167       4.8791      0.00000
    168       4.8809      0.00000


--------------------------------------------------------------------------------------------------------


 soft charge-density along one line, spin component           1
         0         1         2         3         4         5         6         7         8         9
 total charge-density along one line
 
 pseudopotential strength for first ion, spin component:           1
 12.639  21.266   0.000   0.000   0.000   0.000   0.000   0.000
 21.266  35.783   0.000   0.000   0.000   0.000   0.000   0.000
  0.000   0.000  -3.235  -0.000   0.000  -5.794   0.000   0.000
  0.000   0.000  -0.000  -3.235  -0.000   0.000  -5.793  -0.000
  0.000   0.000   0.000  -0.000  -3.235   0.000  -0.000  -5.794
  0.000   0.000  -5.794   0.000   0.000 -10.354   0.000   0.000
  0.000   0.000   0.000  -5.793  -0.000   0.000 -10.352  -0.000
  0.000   0.000   0.000  -0.000  -5.794   0.000  -0.000 -10.354
 total augmentation occupancy for first ion, spin component:           1
 10.264  -3.894  -0.000  -0.002  -0.000   0.000   0.001   0.000
 -3.894   1.507   0.000   0.001   0.000  -0.000  -0.000  -0.000
 -0.000   0.000   8.468  -0.009   0.000  -3.024   0.003  -0.000
 -0.002   0.001  -0.009   4.016  -0.000   0.003  -1.207   0.000
 -0.000   0.000   0.000  -0.000   8.468  -0.000   0.000  -3.024
  0.000  -0.000  -3.024   0.003  -0.000   1.093  -0.001   0.000
  0.001  -0.000   0.003  -1.207   0.000  -0.001   0.368  -0.000
  0.000  -0.000  -0.000   0.000  -3.024   0.000  -0.000   1.093


------------------------ aborting loop because EDIFF is reached ----------------------------------------


    FORLOC:  cpu time    0.1388: real time    0.1397
    FORNL :  cpu time    3.8240: real time    3.8544
    FORCOR:  cpu time    1.6132: real time    1.6222
    OFIELD:  cpu time    0.0030: real time    0.0030

 VOLUME and BASIS-vectors are now :
 -----------------------------------------------------------------------------
  energy-cutoff  :     1000.00
  volume of cell :     3288.85
      direct lattice vectors                 reciprocal lattice vectors
    12.325000000  0.000000000  0.000000000     0.081135903  0.046843835  0.000000000
    -6.162500000 10.673763102  0.000000000     0.000000000  0.093687670  0.000000000
     0.000000000  0.000000000 25.000000000     0.000000000  0.000000000  0.040000000

  length of vectors
    12.325000000 12.325000000 25.000000000     0.093687670  0.093687670  0.040000000


 FORCES acting on ions:
    Electron-Ion                     Ewald-Force                    Non-Local-Force
 -----------------------------------------------------------------------------------------------
   0.832E+00 0.735E+00 0.152E+02   -.833E+00 -.736E+00 -.152E+02   0.469E-02 -.747E-03 0.619E-02
   0.114E+01 0.618E+00 0.164E+02   -.115E+01 -.615E+00 -.164E+02   0.310E-02 -.332E-02 -.599E-02
   0.458E+00 0.126E+01 0.165E+02   -.460E+00 -.126E+01 -.165E+02   -.328E-03 0.115E-01 -.155E-02
   0.575E+00 0.841E+00 0.189E+02   -.573E+00 -.840E+00 -.189E+02   0.118E-01 0.521E-03 -.166E-01
   0.922E+00 0.239E+00 0.157E+02   -.921E+00 -.240E+00 -.157E+02   -.439E-03 -.540E-02 0.371E-02
   0.941E+00 -.209E+00 0.158E+02   -.944E+00 0.210E+00 -.158E+02   -.642E-02 0.326E-02 -.250E-02
   0.110E+01 0.472E+00 0.189E+02   -.111E+01 -.472E+00 -.189E+02   0.119E-01 -.194E-01 -.697E-02
   0.112E+01 -.361E+00 0.201E+02   -.113E+01 0.364E+00 -.201E+02   -.702E-02 -.563E-02 -.600E-02
   -.550E+00 0.121E+01 0.169E+02   0.554E+00 -.122E+01 -.169E+02   -.208E-03 -.131E-01 -.526E-02
   -.716E+00 0.624E+00 0.192E+02   0.717E+00 -.625E+00 -.192E+02   -.259E-01 0.148E-01 0.243E-02
   0.245E+00 -.252E+00 0.149E+02   -.242E+00 0.252E+00 -.149E+02   0.387E-02 -.266E-02 0.577E-03
   0.240E+00 -.198E+00 0.146E+02   -.240E+00 0.199E+00 -.146E+02   -.678E-02 0.332E-02 0.670E-02
   0.336E+00 -.882E+00 0.210E+02   -.336E+00 0.885E+00 -.209E+02   0.266E-01 -.774E-02 -.239E-02
   0.213E+00 -.134E+01 0.181E+02   -.218E+00 0.134E+01 -.181E+02   0.376E-02 0.676E-02 -.168E-01
   -.863E+00 0.518E+00 0.152E+02   0.865E+00 -.519E+00 -.152E+02   0.737E-02 -.407E-02 0.807E-02
   -.110E+01 0.304E+00 0.155E+02   0.110E+01 -.304E+00 -.155E+02   -.150E-02 0.515E-02 -.460E-02
   -.155E+00 -.646E-01 0.142E+02   0.158E+00 0.627E-01 -.142E+02   -.123E-03 0.516E-03 0.228E-02
   0.722E-01 0.537E+00 0.143E+02   -.717E-01 -.537E+00 -.143E+02   -.299E-02 0.164E-02 0.964E-02
   -.227E+00 -.128E+01 0.165E+02   0.227E+00 0.128E+01 -.165E+02   0.596E-02 -.153E-02 0.169E-03
   -.135E+00 -.787E+00 0.150E+02   0.132E+00 0.788E+00 -.150E+02   0.636E-04 -.836E-03 -.583E-03
   0.120E+01 -.509E+00 0.173E+02   -.120E+01 0.510E+00 -.173E+02   -.182E-02 -.214E-02 -.168E-01
   0.858E+00 -.687E+00 0.163E+02   -.861E+00 0.689E+00 -.163E+02   -.686E-02 0.532E-02 -.179E-02
   -.202E+00 0.351E+00 0.209E+02   0.198E+00 -.349E+00 -.209E+02   -.105E-01 0.104E-01 0.154E-03
   -.292E+00 -.555E+00 0.209E+02   0.294E+00 0.553E+00 -.209E+02   0.122E-01 -.150E-01 -.120E-01
   0.466E+00 -.171E+00 0.149E+02   -.464E+00 0.169E+00 -.149E+02   0.364E-02 -.256E-02 -.266E-02
   0.137E+00 0.395E+00 0.148E+02   -.137E+00 -.395E+00 -.148E+02   -.513E-02 0.338E-02 0.625E-02
   -.131E+01 0.129E+00 0.173E+02   0.131E+01 -.132E+00 -.173E+02   0.119E-01 0.778E-02 -.272E-02
   -.121E+01 -.503E+00 0.167E+02   0.122E+01 0.503E+00 -.167E+02   -.855E-02 0.908E-02 0.430E-03
   0.467E+00 -.976E+00 0.165E+02   -.467E+00 0.976E+00 -.165E+02   0.419E-02 0.234E-02 -.662E-02
   0.443E-01 -.430E+00 0.152E+02   -.466E-01 0.432E+00 -.152E+02   -.479E-02 0.247E-02 -.175E-02
   -.867E+00 -.866E+00 0.178E+02   0.866E+00 0.867E+00 -.178E+02   -.119E-01 -.788E-02 -.144E-01
   -.640E+00 -.122E+01 0.163E+02   0.642E+00 0.122E+01 -.163E+02   0.776E-03 -.966E-03 0.157E-02
   0.496E-01 0.268E+00 0.145E+02   -.496E-01 -.268E+00 -.145E+02   0.502E-02 -.468E-02 0.775E-02
   0.153E+00 0.236E+00 0.147E+02   -.156E+00 -.235E+00 -.147E+02   -.230E-02 0.456E-02 -.601E-03
   -.579E+00 0.109E+00 0.149E+02   0.582E+00 -.110E+00 -.149E+02   0.420E-02 -.248E-02 0.671E-02
   -.511E+00 -.239E+00 0.148E+02   0.510E+00 0.239E+00 -.148E+02   -.377E-02 0.225E-02 0.437E-02
   -.961E+00 -.526E+00 0.151E+02   0.964E+00 0.524E+00 -.151E+02   -.779E-03 0.106E-02 0.357E-02
   -.642E+00 -.517E+00 0.146E+02   0.643E+00 0.517E+00 -.146E+02   -.379E-02 0.131E-02 0.931E-02
   -.588E+00 -.740E+00 0.149E+02   0.588E+00 0.741E+00 -.149E+02   -.286E-02 0.511E-03 0.480E-02
   -.870E-01 -.210E+00 0.144E+02   0.879E-01 0.209E+00 -.144E+02   0.197E-02 0.751E-03 0.745E-02
   0.224E+00 0.557E+00 0.144E+02   -.225E+00 -.557E+00 -.144E+02   -.395E-02 0.171E-02 0.709E-02
   0.672E+00 0.101E+01 0.152E+02   -.671E+00 -.101E+01 -.152E+02   -.747E-03 -.999E-03 0.751E-02
   0.788E-01 0.913E+00 0.147E+02   -.755E-01 -.915E+00 -.147E+02   -.166E-03 0.642E-03 0.254E-02
   0.872E-03 0.132E+01 0.160E+02   -.545E-05 -.132E+01 -.160E+02   -.810E-02 0.171E-02 0.505E-02
   -.178E+00 0.327E+00 0.150E+02   0.180E+00 -.329E+00 -.150E+02   0.403E-02 -.306E-02 0.214E-02
   -.630E+00 0.803E+00 0.155E+02   0.630E+00 -.803E+00 -.155E+02   -.596E-02 0.166E-03 -.889E-03
   -.188E+00 -.408E+00 0.149E+02   0.188E+00 0.407E+00 -.149E+02   0.607E-02 -.124E-02 0.657E-02
   -.368E+00 0.127E+00 0.145E+02   0.367E+00 -.126E+00 -.145E+02   -.357E-02 0.334E-02 -.254E-02
   0.323E-01 -.247E+00 0.145E+02   -.326E-01 0.247E+00 -.145E+02   0.423E-02 -.304E-02 0.599E-02
   0.396E+00 0.284E+00 0.145E+02   -.398E+00 -.282E+00 -.145E+02   -.226E-03 0.175E-02 0.347E-02
   -.160E-02 0.266E-01 -.200E+03   -.281E-02 -.225E-01 0.200E+03   -.285E-02 0.181E-02 -.102E-02
   -.228E+03 0.155E+03 -.313E+03   0.279E+03 -.190E+03 0.317E+03   -.523E+02 0.356E+02 -.351E+01
   0.228E+03 -.155E+03 -.291E+03   -.279E+03 0.190E+03 0.288E+03   0.523E+02 -.356E+02 0.316E+01
 -----------------------------------------------------------------------------------------------
   -.797E-02 0.145E-01 0.358E+00   0.114E-12 -.114E-12 0.171E-12   0.761E-02 -.150E-01 -.354E+00
 
 
 POSITION                                       TOTAL-FORCE (eV/Angst)
 -----------------------------------------------------------------------------------
     11.98348      0.00342      0.01417         0.003460     -0.001888     -0.001504
     -0.34154      1.42665      0.01100        -0.000840     -0.000102     -0.003755
      2.12355      0.00315      0.01249        -0.002239      0.010932     -0.007314
      2.12326      1.42653      0.00641         0.014049      0.000999     -0.008645
     10.75099      2.13819      0.01213         0.000931     -0.005861     -0.000224
     -1.57382      3.56123      0.01110        -0.009420      0.004500     -0.001525
      0.89078      2.13854      0.00548         0.009854     -0.019639      0.002943
      0.89099      3.56147      0.00181        -0.012001     -0.002764      0.013578
      4.58864      0.00346      0.01135         0.003554     -0.016224     -0.003782
      4.58894      1.42623      0.00646        -0.023900      0.013568      0.015315
      9.51854      4.27281      0.01369         0.007050     -0.002890      0.000090
     -2.80632      5.69591      0.01434        -0.007029      0.003375      0.000635
      2.12300      4.27302      0.00000         0.025411     -0.005074      0.022994
      2.12335      5.69594      0.00581        -0.000564      0.009172     -0.002253
      7.05344      0.00333      0.01399         0.009495     -0.005692     -0.000642
      7.05353      1.42635      0.01368        -0.001750      0.005139     -0.004239
      8.28610      6.40752      0.01601         0.003147     -0.001222     -0.001088
     -4.03885      7.83070      0.01636        -0.002547      0.001023     -0.000472
      3.35586      6.40753      0.01007         0.005585      0.000688     -0.001336
      3.35599      7.83072      0.01320        -0.003014      0.000209     -0.000831
     -0.34146      4.27290      0.00723        -0.001596     -0.001369     -0.004366
     -0.34138      5.69591      0.00946        -0.009417      0.006576     -0.001088
      3.35624      2.13791      0.00222        -0.014611      0.012265      0.017865
      3.35573      3.56155      0.00139         0.014393     -0.016720      0.009982
     -1.57395      6.40758      0.01311         0.005642     -0.003950     -0.000695
     -1.57385      7.83068      0.01438        -0.005214      0.004064     -0.000235
      5.82093      2.13784      0.01033         0.016078      0.005060     -0.003116
      5.82114      3.56097      0.01156        -0.006408      0.008819     -0.004211
      0.89092      6.40755      0.00907         0.004720      0.002238     -0.002239
      0.89106      7.83068      0.01235        -0.006911      0.004285      0.000265
      4.58871      4.27293      0.00850        -0.013737     -0.006195     -0.011512
      4.58852      5.69606      0.01149         0.002509     -0.001496     -0.004503
      9.51845      0.00337      0.01490         0.005087     -0.004988     -0.000089
      9.51855      1.42644      0.01438        -0.005409      0.005481     -0.000530
      8.28593      2.13803      0.01453         0.007160     -0.003500      0.000333
      8.28613      3.56115      0.01464        -0.004652      0.002177     -0.000297
      7.05356      4.27269      0.01457         0.002774     -0.000948     -0.001067
      7.05362      5.69588      0.01553        -0.002624      0.001593     -0.000419
      5.82112      6.40755      0.01489        -0.003290      0.002029     -0.000427
      5.82102      7.83073      0.01579         0.003084      0.000236     -0.000611
      7.05363      8.54227      0.01631        -0.004861      0.001525      0.000739
     -5.27149      9.96549      0.01495         0.000399     -0.002132     -0.002868
     -2.80638      8.54234      0.01558         0.003252     -0.001468     -0.001688
     -2.80627      9.96553      0.01362        -0.007244      0.000061     -0.004481
     -0.34149      8.54239      0.01378         0.005904     -0.005287      0.000052
     -0.34138      9.96550      0.01354        -0.006021      0.000318     -0.001509
      2.12343      8.54232      0.01336         0.006035     -0.001787      0.000707
      2.12354      9.96544      0.01469        -0.005172      0.004211     -0.002150
      4.58846      8.54235      0.01505         0.003828     -0.002844      0.000787
      4.58853      9.96550      0.01517        -0.002673      0.003545     -0.000155
      3.04930      2.68154      7.93701        -0.007318      0.005883      0.039859
      4.02070      2.02068      8.00143        -1.424988      0.969170     -0.111010
      2.07767      3.34267      7.87755         1.432048     -0.975101      0.070732
 -----------------------------------------------------------------------------------
    total drift:                               -0.000353     -0.000462      0.003948


--------------------------------------------------------------------------------------------------------



  FREE ENERGIE OF THE ION-ELECTRON SYSTEM (eV)
  ---------------------------------------------------
  free  energy   TOTEN  =      -523.31441578 eV

  energy  without entropy=     -523.31441578  energy(sigma->0) =     -523.31441578
 


--------------------------------------------------------------------------------------------------------


    POTLOK:  cpu time    1.8864: real time    1.8989


--------------------------------------------------------------------------------------------------------


 writing wavefunctions
     LOOP+:  cpu time  909.4312: real time  916.6484
    4ORBIT:  cpu time    0.0000: real time    0.0000

 total amount of memory used by VASP MPI-rank0   698619. kBytes
=======================================================================

   base      :      30000. kBytes
   nonl-proj :     230539. kBytes
   fftplans  :      40716. kBytes
   grid      :     363125. kBytes
   one-center:        162. kBytes
   wavefun   :      34077. kBytes
 
  
  
 General timing and accounting informations for this job:
 ========================================================
  
                  Total CPU time used (sec):      954.490
                            User time (sec):      927.939
                          System time (sec):       26.551
                         Elapsed time (sec):      962.883
  
                   Maximum memory used (kb):     1236852.
                   Average memory used (kb):          N/A
  
                          Minor page faults:       148969
                          Major page faults:           88
                 Voluntary context switches:         3610
