 vasp.6.2.1 16May21 (build Nov 06 2021 14:46:37) complex                        
  
 executed on             LinuxIFC date 2025.04.06  14:47:26
 running on  112 total cores
 distrk:  each k-point on   56 cores,    2 groups
 distr:  one band on NCORE=   1 cores,   56 groups


--------------------------------------------------------------------------------------------------------


 INCAR:
   ALGO = Conjugate
   KPAR = 2
   NCORE = 32
   ISMEAR = 0
   SIGMA = 0.01
   PREC = Accurate
   EDIFF = 1E-7
   ENCUT = 1000
   ISIF = 0
   METAGGA = R2SCAN
   LASPH = .TRUE.
   SYMPREC = 1E-7

 POTCAR:    PAW_PBE C_h 06Feb2004                 
 POTCAR:    PAW_PBE O_h 06Feb2004                 
 -----------------------------------------------------------------------------
|                                                                             |
|           W    W    AA    RRRRR   N    N  II  N    N   GGGG   !!!           |
|           W    W   A  A   R    R  NN   N  II  NN   N  G    G  !!!           |
|           W    W  A    A  R    R  N N  N  II  N N  N  G       !!!           |
|           W WW W  AAAAAA  RRRRR   N  N N  II  N  N N  G  GGG   !            |
|           WW  WW  A    A  R   R   N   NN  II  N   NN  G    G                |
|           W    W  A    A  R    R  N    N  II  N    N   GGGG   !!!           |
|                                                                             |
|     The value NCORE = 32 specified in the INCAR file was overwritten,       |
|     because it was not compatible with the 56 processes available:          |
|     NCORE = 1                                                               |
|     was used instead, please check that this makes sense for your           |
|     machine.                                                                |
|                                                                             |
 -----------------------------------------------------------------------------

 -----------------------------------------------------------------------------
|                                                                             |
|           W    W    AA    RRRRR   N    N  II  N    N   GGGG   !!!           |
|           W    W   A  A   R    R  NN   N  II  NN   N  G    G  !!!           |
|           W    W  A    A  R    R  N N  N  II  N N  N  G       !!!           |
|           W WW W  AAAAAA  RRRRR   N  N N  II  N  N N  G  GGG   !            |
|           WW  WW  A    A  R   R   N   NN  II  N   NN  G    G                |
|           W    W  A    A  R    R  N    N  II  N    N   GGGG   !!!           |
|                                                                             |
|     For optimal performance we recommend to set                             |
|       NCORE = 2 up to number-of-cores-per-socket                            |
|     NCORE specifies how many cores store one orbital (NPAR=cpu/NCORE).      |
|     This setting can greatly improve the performance of VASP for DFT.       |
|     The default, NCORE=1 might be grossly inefficient on modern             |
|     multi-core architectures or massively parallel machines. Do your        |
|     own testing! More info at https://www.vasp.at/wiki/index.php/NCORE      |
|     Unfortunately you need to use the default for GW and RPA                |
|     calculations (for HF NCORE is supported but not extensively tested      |
|     yet).                                                                   |
|                                                                             |
 -----------------------------------------------------------------------------

 POTCAR:    PAW_PBE C_h 06Feb2004                 
   VRHFIN =C: s2p2                                                                                  
   LEXCH  = PE                                                                                      
   EATOM  =   147.1560 eV,   10.8157 Ry                                                             
                                                                                                    
   TITEL  = PAW_PBE C_h 06Feb2004                                                                   
   LULTRA =        F    use ultrasoft PP ?                                                          
   IUNSCR =        1    unscreen: 0-lin 1-nonlin 2-no                                               
   RPACOR =    0.800    partial core radius                                                         
   POMASS =   12.011; ZVAL   =    4.000    mass and valenz                                          
   RCORE  =    1.100    outmost cutoff radius                                                       
   RWIGS  =    1.630; RWIGS  =    0.863    wigner-seitz radius (au A)                               
   ENMAX  =  700.000; ENMIN  =  500.000 eV                                                          
   ICORE  =        2    local potential                                                             
   LCOR   =        T    correct aug charges                                                         
   LPAW   =        T    paw PP                                                                      
   EAUG   =  946.768                                                                                
   DEXC   =    0.000                                                                                
   RMAX   =    1.128    core radius for proj-oper                                                   
   RAUG   =    1.300    factor for augmentation sphere                                              
   RDEP   =    1.162    radius for radial grids                                                     
   RDEPT  =    1.088    core radius for aug-charge                                                  
                                                                                                    
   Atomic configuration                                                                             
    4 entries                                                                                       
     n  l   j            E        occ.                                                              
     1  0  0.50      -273.3789   2.0000                                                             
     2  0  0.50       -13.7508   2.0000                                                             
     2  1  0.50        -5.2854   2.0000                                                             
     3  2  1.50        -5.4423   0.0000                                                             
   Description                                                                                      
     l       E           TYP  RCUT    TYP  RCUT                                                     
     0    -13.7508458     23  1.100                                                                 
     0     -8.2022199     23  1.100                                                                 
     1     -5.2854383     23  1.100                                                                 
     1      1.1560700     23  1.100                                                                 
     2     -5.4423304      7  1.100                                                                 
  local pseudopotential read in
  partial core-charges read in
  partial kinetic energy density read in
  atomic valenz-charges read in
  non local Contribution for L=           0  read in
    real space projection operators read in
  non local Contribution for L=           0  read in
    real space projection operators read in
  non local Contribution for L=           1  read in
    real space projection operators read in
  non local Contribution for L=           1  read in
    real space projection operators read in
    PAW grid and wavefunctions read in
 
   number of l-projection  operators is LMAX  =           4
   number of lm-projection operators is LMMAX =           8
 
 POTCAR:    PAW_PBE O_h 06Feb2004                 
   VRHFIN =O: s2p4                                                                                  
   LEXCH  = PE                                                                                      
   EATOM  =   432.3788 eV,   31.7789 Ry                                                             
                                                                                                    
   TITEL  = PAW_PBE O_h 06Feb2004                                                                   
   LULTRA =        F    use ultrasoft PP ?                                                          
   IUNSCR =        1    unscreen: 0-lin 1-nonlin 2-no                                               
   RPACOR =    0.800    partial core radius                                                         
   POMASS =   16.000; ZVAL   =    6.000    mass and valenz                                          
   RCORE  =    1.100    outmost cutoff radius                                                       
   RWIGS  =    1.400; RWIGS  =    0.741    wigner-seitz radius (au A)                               
   ENMAX  =  700.000; ENMIN  =  500.000 eV                                                          
   ICORE  =        2    local potential                                                             
   LCOR   =        T    correct aug charges                                                         
   LPAW   =        T    paw PP                                                                      
   EAUG   =  888.804                                                                                
   DEXC   =    0.000                                                                                
   RMAX   =    1.128    core radius for proj-oper                                                   
   RAUG   =    1.300    factor for augmentation sphere                                              
   RDEP   =    1.125    radius for radial grids                                                     
   RDEPT  =    1.088    core radius for aug-charge                                                  
                                                                                                    
   Atomic configuration                                                                             
    4 entries                                                                                       
     n  l   j            E        occ.                                                              
     1  0  0.50      -514.6923   2.0000                                                             
     2  0  0.50       -23.9615   2.0000                                                             
     2  1  0.50        -9.0305   4.0000                                                             
     3  2  1.50        -9.5241   0.0000                                                             
   Description                                                                                      
     l       E           TYP  RCUT    TYP  RCUT                                                     
     0    -23.9615319     23  1.100                                                                 
     0    -25.3221145     23  1.100                                                                 
     1     -9.0304911     23  1.100                                                                 
     1     -5.4802209     23  1.100                                                                 
     2     -9.5240782      7  1.100                                                                 
  local pseudopotential read in
  partial core-charges read in
  partial kinetic energy density read in
  atomic valenz-charges read in
  non local Contribution for L=           0  read in
    real space projection operators read in
  non local Contribution for L=           0  read in
    real space projection operators read in
  non local Contribution for L=           1  read in
    real space projection operators read in
  non local Contribution for L=           1  read in
    real space projection operators read in
    PAW grid and wavefunctions read in
 
   number of l-projection  operators is LMAX  =           4
   number of lm-projection operators is LMMAX =           8
 
 -----------------------------------------------------------------------------
|                                                                             |
|               ----> ADVICE to this user running VASP <----                  |
|                                                                             |
|     You have a (more or less) 'large supercell' and for larger cells it     |
|     might be more efficient to use real-space projection operators.         |
|     Therefore, try LREAL= Auto in the INCAR file.                           |
|     Mind: For very accurate calculation, you might also keep the            |
|     reciprocal projection scheme (i.e. LREAL=.FALSE.).                      |
|                                                                             |
 -----------------------------------------------------------------------------

  PAW_PBE C_h 06Feb2004                 :
 energy of atom  1       EATOM= -147.1560
 kinetic energy error for atom=    0.0031 (will be added to EATOM!!)
  PAW_PBE O_h 06Feb2004                 :
 energy of atom  2       EATOM= -432.3788
 kinetic energy error for atom=    0.0171 (will be added to EATOM!!)
 
 
 POSCAR:  C  O
  positions in cartesian coordinates
  No initial velocities read in

 METAGGA = R2SCA    LMAXTAU =  6    LMIXTAU =  F

 exchange correlation table for  LEXCH =        8
   RHO(1)=    0.500       N(1)  =     2000
   RHO(2)=  100.500       N(2)  =     4000
 


--------------------------------------------------------------------------------------------------------


 ion  position               nearest neighbor table
   1  0.972  0.000  0.001-  50 1.42   2 1.42  42 1.42
   2  0.039  0.134  0.001-   5 1.42   7 1.42   1 1.42
   3  0.172  0.000  0.001-  42 1.42  44 1.42   4 1.42
   4  0.239  0.134  0.000-   7 1.42   3 1.42  23 1.42
   5  0.972  0.200  0.001-   6 1.42   2 1.42  34 1.42
   6  0.039  0.334  0.001-   5 1.42  21 1.42  11 1.42
   7  0.172  0.200  0.000-   8 1.42   2 1.42   4 1.42
   8  0.239  0.334  0.000-  13 1.42   7 1.42  21 1.42
   9  0.372  0.000  0.001-  10 1.42  44 1.42  46 1.42
  10  0.439  0.134  0.000-  27 1.42   9 1.42  23 1.42
  11  0.972  0.400  0.001-  12 1.42  36 1.42   6 1.42
  12  0.039  0.534  0.001-  25 1.42  11 1.42  17 1.42
  13  0.372  0.400  0.000-   8 1.42  14 1.42  24 1.42
  14  0.439  0.534  0.000-  13 1.42  29 1.42  19 1.42
  15  0.572  0.000  0.001-  46 1.42  16 1.42  48 1.42
  16  0.639  0.134  0.001-  15 1.42  35 1.42  27 1.42
  17  0.972  0.600  0.001-  38 1.42  18 1.42  12 1.42
  18  0.039  0.734  0.001-  43 1.42  41 1.42  17 1.42
  19  0.572  0.600  0.001-  14 1.42  20 1.42  32 1.42
  20  0.639  0.734  0.001-  49 1.42  19 1.42  47 1.42
  21  0.172  0.400  0.000-  22 1.42   8 1.42   6 1.42
  22  0.239  0.534  0.000-  21 1.42  29 1.42  25 1.42
  23  0.372  0.200  0.000-  10 1.42   4 1.42  24 1.42
  24  0.439  0.334  0.000-  13 1.42  31 1.42  23 1.42
  25  0.172  0.600  0.001-  26 1.42  12 1.42  22 1.42
  26  0.239  0.734  0.001-  25 1.42  45 1.42  43 1.42
  27  0.572  0.200  0.001-  10 1.42  28 1.42  16 1.42
  28  0.639  0.334  0.001-  27 1.42  37 1.42  31 1.42
  29  0.372  0.600  0.000-  22 1.42  14 1.42  30 1.42
  30  0.439  0.734  0.001-  47 1.42  29 1.42  45 1.42
  31  0.572  0.400  0.000-  32 1.42  28 1.42  24 1.42
  32  0.639  0.534  0.001-  31 1.42  39 1.42  19 1.42
  33  0.772  0.000  0.001-  34 1.42  48 1.42  50 1.42
  34  0.839  0.134  0.001-  33 1.42   5 1.42  35 1.42
  35  0.772  0.200  0.001-  36 1.42  16 1.42  34 1.42
  36  0.839  0.334  0.001-  35 1.42  11 1.42  37 1.42
  37  0.772  0.400  0.001-  28 1.42  38 1.42  36 1.42
  38  0.839  0.534  0.001-  17 1.42  37 1.42  39 1.42
  39  0.772  0.600  0.001-  40 1.42  38 1.42  32 1.42
  40  0.839  0.734  0.001-  39 1.42  49 1.42  41 1.42
  41  0.972  0.800  0.001-  18 1.42  42 1.42  40 1.42
  42  0.039  0.934  0.001-   3 1.42  41 1.42   1 1.42
  43  0.172  0.800  0.001-  18 1.42  44 1.42  26 1.42
  44  0.239  0.934  0.001-   9 1.42  43 1.42   3 1.42
  45  0.372  0.800  0.001-  26 1.42  46 1.42  30 1.42
  46  0.439  0.934  0.001-  15 1.42  45 1.42   9 1.42
  47  0.572  0.800  0.001-  30 1.42  48 1.42  20 1.42
  48  0.639  0.934  0.001-  47 1.42  33 1.42  15 1.42
  49  0.772  0.800  0.001-  50 1.42  20 1.42  40 1.42
  50  0.839  0.934  0.001-  49 1.42   1 1.42  33 1.42
  51  0.373  0.251  0.500-  52 1.18  53 1.18
  52  0.421  0.189  0.503-  51 1.18
  53  0.325  0.313  0.497-  51 1.18
 
  LATTYP: Found a hexagonal cell.
 ALAT       =    12.3250000000
 C/A-ratio  =     1.6227180527
  
  Lattice vectors:
  
 A1 = (  12.3250000000,   0.0000000000,   0.0000000000)
 A2 = (  -6.1625000000,  10.6737631016,   0.0000000000)
 A3 = (   0.0000000000,   0.0000000000,  20.0000000000)


Analysis of symmetry for initial positions (statically):
=====================================================================
 Subroutine PRICEL returns:
 Original cell was already a primitive cell.
 

 Routine SETGRP: Setting up the symmetry group for a 
 hexagonal supercell.


 Subroutine GETGRP returns: Found  1 space group operations
 (whereof  1 operations were pure point group operations)
 out of a pool of 24 trial point group operations.


The static configuration has the point symmetry C_1 .


Analysis of symmetry for dynamics (positions and initial velocities):
=====================================================================
 Subroutine PRICEL returns:
 Original cell was already a primitive cell.
 

 Routine SETGRP: Setting up the symmetry group for a 
 hexagonal supercell.


 Subroutine GETGRP returns: Found  1 space group operations
 (whereof  1 operations were pure point group operations)
 out of a pool of 24 trial point group operations.


The dynamic configuration has the point symmetry C_1 .


 Subroutine INISYM returns: Found  1 space group operations
 (whereof  1 operations are pure point group operations),
 and found     1 'primitive' translations


----------------------------------------------------------------------------------------

                                     Primitive cell                                     

  volume of cell :    2631.0826

  direct lattice vectors                    reciprocal lattice vectors
    12.325000000  0.000000000  0.000000000     0.081135903  0.046843835  0.000000000
    -6.162500000 10.673763102  0.000000000     0.000000000  0.093687670  0.000000000
     0.000000000  0.000000000 20.000000000     0.000000000  0.000000000  0.050000000

  length of vectors
    12.325000000 12.325000000 20.000000000     0.093687670  0.093687670  0.050000000

  position of ions in fractional coordinates (direct lattice)
     0.972450841  0.000320818  0.000708389
     0.039118382  0.133659505  0.000550216
     0.172443627  0.000295449  0.000624535
     0.239096278  0.133647917  0.000320585
     0.972452058  0.200322012  0.000606523
     0.039128360  0.333643771  0.000555187
     0.172451764  0.200354552  0.000273959
     0.239124359  0.333665720  0.000090325
     0.372465565  0.000324403  0.000567391
     0.439137473  0.133619939  0.000322923
     0.972449824  0.400309362  0.000684513
     0.039124981  0.533636789  0.000716763
     0.372416176  0.400329481  0.000000000
     0.439099602  0.533638981  0.000290518
     0.572443676  0.000312125  0.000699475
     0.639110207  0.133631751  0.000684093
     0.972452703  0.600305653  0.000800361
     0.039124495  0.733640359  0.000818141
     0.572433471  0.600306242  0.000503618
     0.639111888  0.733641879  0.000659881
     0.172454630  0.400318228  0.000361306
     0.239120185  0.533636548  0.000473136
     0.372459750  0.200295993  0.000111246
     0.439107096  0.333673419  0.000069702
     0.172452155  0.600311506  0.000655425
     0.239123371  0.733638574  0.000718912
     0.572431082  0.200289171  0.000516621
     0.639112773  0.333618630  0.000577970
     0.372439808  0.600308022  0.000453556
     0.439116090  0.733637858  0.000617737
     0.572469358  0.400320504  0.000424897
     0.639119408  0.533650873  0.000574513
     0.772445723  0.000315427  0.000745201
     0.839116277  0.133640203  0.000719132
     0.772440513  0.200307432  0.000726291
     0.839120241  0.333635728  0.000731834
     0.772446320  0.400298367  0.000728722
     0.839118980  0.533633964  0.000776376
     0.772456143  0.600308173  0.000744639
     0.839115033  0.733643180  0.000789390
     0.972455313  0.800305582  0.000815291
     0.039114714  0.933643289  0.000747563
     0.172457971  0.800312211  0.000779216
     0.239134551  0.933647193  0.000681063
     0.372451396  0.800316674  0.000689249
     0.439124489  0.933644769  0.000676788
     0.572441101  0.800310054  0.000668168
     0.639115067  0.933638985  0.000734556
     0.772445098  0.800313187  0.000752577
     0.839116614  0.933644338  0.000758538
     0.373021009  0.251226878  0.500000000
     0.420879805  0.189313152  0.503221093
     0.325156981  0.313167186  0.497027256

  ion indices of the primitive-cell ions
   primitive index   ion index
                 1           1
                 2           2
                 3           3
                 4           4
                 5           5
                 6           6
                 7           7
                 8           8
                 9           9
                10          10
                11          11
                12          12
                13          13
                14          14
                15          15
                16          16
                17          17
                18          18
                19          19
                20          20
                21          21
                22          22
                23          23
                24          24
                25          25
                26          26
                27          27
                28          28
                29          29
                30          30
                31          31
                32          32
                33          33
                34          34
                35          35
                36          36
                37          37
                38          38
                39          39
                40          40
                41          41
                42          42
                43          43
                44          44
                45          45
                46          46
                47          47
                48          48
                49          49
                50          50
                51          51
                52          52
                53          53

----------------------------------------------------------------------------------------

 
 
 KPOINTS: auto                                    

Automatic generation of k-mesh.
 Grid dimensions read from file:
 generate k-points for:    1    1    1

 Generating k-lattice:

  Cartesian coordinates                     Fractional coordinates (reciprocal lattice)
     0.081135903  0.046843835  0.000000000     1.000000000 -0.000000000  0.000000000
     0.000000000  0.093687670  0.000000000     0.000000000  1.000000000  0.000000000
     0.000000000  0.000000000  0.050000000     0.000000000  0.000000000  1.000000000

  Length of vectors
     0.093687670  0.093687670  0.050000000

  Shift w.r.t. Gamma in fractional coordinates (k-lattice)
     0.000000000  0.000000000  0.000000000

 
 Subroutine IBZKPT returns following result:
 ===========================================
 
 Found      1 irreducible k-points:
 
 Following reciprocal coordinates:
            Coordinates               Weight
  0.000000  0.000000  0.000000      1.000000
 
 Following cartesian coordinates:
            Coordinates               Weight
  0.000000  0.000000  0.000000      1.000000
 


--------------------------------------------------------------------------------------------------------




 Dimension of arrays:
   k-points           NKPTS =      1   k-points in BZ     NKDIM =      1   number of bands    NBANDS=    168
   number of dos      NEDOS =    301   number of ions     NIONS =     53
   non local maximal  LDIM  =      4   non local SUM 2l+1 LMDIM =      8
   total plane-waves  NPLWV = ******
   max r-space proj   IRMAX =      1   max aug-charges    IRDMAX=   9736
   dimension x,y,z NGX =   128 NGY =  128 NGZ =  210
   dimension x,y,z NGXF=   256 NGYF=  256 NGZF=  420
   support grid    NGXF=   256 NGYF=  256 NGZF=  420
   ions per type =              51   2
   NGX,Y,Z   is equivalent  to a cutoff of  17.27, 17.27, 17.46 a.u.
   NGXF,Y,Z  is equivalent  to a cutoff of  34.53, 34.53, 34.91 a.u.

 SYSTEM =  unknown system                          
 POSCAR =   C  O                                   

 Startparameter for this run:
   NWRITE =      2    write-flag & timer
   PREC   = accura    normal or accurate (medium, high low for compatibility)
   ISTART =      0    job   : 0-new  1-cont  2-samecut
   ICHARG =      2    charge: 1-file 2-atom 10-const
   ISPIN  =      1    spin polarized calculation?
   LNONCOLLINEAR =      F non collinear calculations
   LSORBIT =      F    spin-orbit coupling
   INIWAV =      1    electr: 0-lowe 1-rand  2-diag
   LASPH  =      T    aspherical Exc in radial PAW
 Electronic Relaxation 1
   ENCUT  = 1000.0 eV  73.50 Ry    8.57 a.u.  31.78 31.78 51.57*2*pi/ulx,y,z
   ENINI  = 1000.0     initial cutoff
   ENAUG  =  946.8 eV  augmentation charge cutoff
   NELM   =     60;   NELMIN=  2; NELMDL= -5     # of ELM steps 
   EDIFF  = 0.1E-06   stopping-criterion for ELM
   LREAL  =      F    real-space projection
   NLSPLINE    = F    spline interpolate recip. space projectors
   LCOMPAT=      F    compatible to vasp.4.4
   GGA_COMPAT  = T    GGA compatible to vasp.4.4-vasp.4.6
   LMAXPAW     = -100 max onsite density
   LMAXMIX     =    2 max onsite mixed and CHGCAR
   VOSKOWN=      0    Vosko Wilk Nusair interpolation
   ROPT   =    0.00000   0.00000
 Ionic relaxation
   EDIFFG = 0.1E-05   stopping-criterion for IOM
   NSW    =      0    number of steps for IOM
   NBLOCK =      1;   KBLOCK =      1    inner block; outer block 
   IBRION =     -1    ionic relax: 0-MD 1-quasi-New 2-CG
   NFREE  =      0    steps in history (QN), initial steepest desc. (CG)
   ISIF   =      0    stress and relaxation
   IWAVPR =     10    prediction:  0-non 1-charg 2-wave 3-comb
   ISYM   =      2    0-nonsym 1-usesym 2-fastsym
   LCORR  =      T    Harris-Foulkes like correction to forces

   POTIM  = 0.5000    time-step for ionic-motion
   TEIN   =    0.0    initial temperature
   TEBEG  =    0.0;   TEEND  =   0.0 temperature during run
   SMASS  =  -3.00    Nose mass-parameter (am)
   estimated Nose-frequenzy (Omega)   =  0.10E-29 period in steps = 0.13E+47 mass=  -0.347E-26a.u.
   SCALEE = 1.0000    scale energy and forces
   NPACO  =    256;   APACO  = 16.0  distance and # of slots for P.C.
   PSTRESS=    0.0 pullay stress

  Mass of Ions in am
   POMASS =  12.01 16.00
  Ionic Valenz
   ZVAL   =   4.00  6.00
  Atomic Wigner-Seitz radii
   RWIGS  =  -1.00 -1.00
  virtual crystal weights 
   VCA    =   1.00  1.00
   NELECT =     216.0000    total number of electrons
   NUPDOWN=      -1.0000    fix difference up-down

 DOS related values:
   EMIN   =  10.00;   EMAX   =-10.00  energy-range for DOS
   EFERMI =   0.00
   ISMEAR =     0;   SIGMA  =   0.01  broadening in eV -4-tet -1-fermi 0-gaus

 Electronic relaxation 2 (details)
   IALGO  =     58    algorithm
   LDIAG  =      T    sub-space diagonalisation (order eigenvalues)
   LSUBROT=      F    optimize rotation matrix (better conditioning)
   TURBO    =      0    0=normal 1=particle mesh
   IRESTART =      0    0=no restart 2=restart with 2 vectors
   NREBOOT  =      0    no. of reboots
   NMIN     =      0    reboot dimension
   EREF     =   0.00    reference energy to select bands
   IMIX   =      4    mixing-type and parameters
     AMIX     =   0.40;   BMIX     =  1.00
     AMIX_MAG =   1.60;   BMIX_MAG =  1.00
     AMIN     =   0.10
     WC   =   100.;   INIMIX=   1;  MIXPRE=   1;  MAXMIX= -45

 Intra band minimization:
   WEIMIN = 0.0000     energy-eigenvalue tresh-hold
   EBREAK =  0.15E-09  absolut break condition
   DEPER  =   0.30     relativ break condition  

   TIME   =   0.40     timestep for ELM

  volume/ion in A,a.u.               =      49.64       335.01
  Fermi-wavevector in a.u.,A,eV,Ry     =   0.711510  1.344560  6.887909  0.506247
  Thomas-Fermi vector in A             =   1.798641
 
 Write flags
   LWAVE        =      T    write WAVECAR
   LDOWNSAMPLE  =      F    k-point downsampling of WAVECAR
   LCHARG       =      T    write CHGCAR
   LVTOT        =      F    write LOCPOT, total local potential
   LVHAR        =      F    write LOCPOT, Hartree potential only
   LELF         =      F    write electronic localiz. function (ELF)
   LORBIT       =      0    0 simple, 1 ext, 2 COOP (PROOUT), +10 PAW based schemes


 Dipole corrections
   LMONO  =      F    monopole corrections only (constant potential shift)
   LDIPOL =      F    correct potential (dipole corrections)
   IDIPOL =      0    1-x, 2-y, 3-z, 4-all directions 
   EPSILON=  1.0000000 bulk dielectric constant

 Exchange correlation treatment:
   GGA     =    --    GGA type
   LEXCH   =     8    internal setting for exchange type
   VOSKOWN=      0    Vosko Wilk Nusair interpolation
   LHFCALC =     F    Hartree Fock is set to
   LHFONE  =     F    Hartree Fock one center treatment
   AEXX    =    0.0000 exact exchange contribution

 Linear response parameters
   LEPSILON=     F    determine dielectric tensor
   LRPA    =     F    only Hartree local field effects (RPA)
   LNABLA  =     F    use nabla operator in PAW spheres
   LVEL    =     F    velocity operator in full k-point grid
   LINTERFAST=   F  fast interpolation
   KINTER  =     0    interpolate to denser k-point grid
   CSHIFT  =0.1000    complex shift for real part using Kramers Kronig
   OMEGAMAX=  -1.0    maximum frequency
   DEG_THRESHOLD= 0.2000000E-02 threshold for treating states as degnerate
   RTIME   =   -0.100 relaxation time in fs
  (WPLASMAI=    0.000 imaginary part of plasma frequency in eV, 0.658/RTIME)
   DFIELD  = 0.0000000 0.0000000 0.0000000 field for delta impulse in time
 
 Orbital magnetization related:
   ORBITALMAG=     F  switch on orbital magnetization
   LCHIMAG   =     F  perturbation theory with respect to B field
   DQ        =  0.001000  dq finite difference perturbation B field
   LLRAUG    =     F  two centre corrections for induced B field



--------------------------------------------------------------------------------------------------------


 Static calculation
 charge density and potential will be updated during run
 non-spin polarized calculation
 Conjugate gradient for all bands (Freysoldt, et al. PRB 79, 241103 (2009))
 preconditioned conjugated gradient                                        
 perform sub-space diagonalisation
    before iterative eigenvector-optimisation
 modified Broyden-mixing scheme, WC =      100.0
 initial mixing is a Kerker type mixing with AMIX =  0.4000 and BMIX =      1.0000
 Hartree-type preconditioning will be used
 using additional bands           60
 reciprocal scheme for non local part
 use partial core corrections
 no Harris-corrections to forces 
 use gradient corrections 
 use of overlap-Matrix (Vanderbilt PP)
 Gauss-broadening in eV      SIGMA  =   0.01


--------------------------------------------------------------------------------------------------------


  energy-cutoff  :     1000.00
  volume of cell :     2631.08
      direct lattice vectors                 reciprocal lattice vectors
    12.325000000  0.000000000  0.000000000     0.081135903  0.046843835  0.000000000
    -6.162500000 10.673763102  0.000000000     0.000000000  0.093687670  0.000000000
     0.000000000  0.000000000 20.000000000     0.000000000  0.000000000  0.050000000

  length of vectors
    12.325000000 12.325000000 20.000000000     0.093687670  0.093687670  0.050000000


 
 k-points in units of 2pi/SCALE and weight: auto                                    
   0.00000000  0.00000000  0.00000000       1.000
 
 k-points in reciprocal lattice and weights: auto                                    
   0.00000000  0.00000000  0.00000000       1.000
 
 position of ions in fractional coordinates (direct lattice) 
   0.97245084  0.00032082  0.00070839
   0.03911838  0.13365950  0.00055022
   0.17244363  0.00029545  0.00062454
   0.23909628  0.13364792  0.00032058
   0.97245206  0.20032201  0.00060652
   0.03912836  0.33364377  0.00055519
   0.17245176  0.20035455  0.00027396
   0.23912436  0.33366572  0.00009033
   0.37246557  0.00032440  0.00056739
   0.43913747  0.13361994  0.00032292
   0.97244982  0.40030936  0.00068451
   0.03912498  0.53363679  0.00071676
   0.37241618  0.40032948  0.00000000
   0.43909960  0.53363898  0.00029052
   0.57244368  0.00031213  0.00069947
   0.63911021  0.13363175  0.00068409
   0.97245270  0.60030565  0.00080036
   0.03912449  0.73364036  0.00081814
   0.57243347  0.60030624  0.00050362
   0.63911189  0.73364188  0.00065988
   0.17245463  0.40031823  0.00036131
   0.23912018  0.53363655  0.00047314
   0.37245975  0.20029599  0.00011125
   0.43910710  0.33367342  0.00006970
   0.17245216  0.60031151  0.00065542
   0.23912337  0.73363857  0.00071891
   0.57243108  0.20028917  0.00051662
   0.63911277  0.33361863  0.00057797
   0.37243981  0.60030802  0.00045356
   0.43911609  0.73363786  0.00061774
   0.57246936  0.40032050  0.00042490
   0.63911941  0.53365087  0.00057451
   0.77244572  0.00031543  0.00074520
   0.83911628  0.13364020  0.00071913
   0.77244051  0.20030743  0.00072629
   0.83912024  0.33363573  0.00073183
   0.77244632  0.40029837  0.00072872
   0.83911898  0.53363396  0.00077638
   0.77245614  0.60030817  0.00074464
   0.83911503  0.73364318  0.00078939
   0.97245531  0.80030558  0.00081529
   0.03911471  0.93364329  0.00074756
   0.17245797  0.80031221  0.00077922
   0.23913455  0.93364719  0.00068106
   0.37245140  0.80031667  0.00068925
   0.43912449  0.93364477  0.00067679
   0.57244110  0.80031005  0.00066817
   0.63911507  0.93363899  0.00073456
   0.77244510  0.80031319  0.00075258
   0.83911661  0.93364434  0.00075854
   0.37302101  0.25122688  0.50000000
   0.42087980  0.18931315  0.50322109
   0.32515698  0.31316719  0.49702726
 
 position of ions in cartesian coordinates  (Angst):
  11.98347958  0.00342433  0.01416777
  -0.34154264  1.42664989  0.01100432
   2.12354700  0.00315355  0.01249070
   2.12325634  1.42652621  0.00641170
  10.75098721  2.13818970  0.01213047
  -1.57382270  3.56123457  0.01110375
   0.89078307  2.13853702  0.00547917
   0.89099273  3.56146885  0.00180651
   4.58863896  0.00346260  0.01134782
   4.58893648  1.42622757  0.00645846
   9.51853763  4.27280730  0.01369027
  -2.80632132  5.69591267  0.01433526
   2.12299894  4.27302204  0.00000000
   2.12335237  5.69593607  0.00581036
   7.05344483  0.00333155  0.01398950
   7.05352764  1.42635365  0.01368187
   8.28609598  6.40752033  0.01600723
  -4.03884931  7.83070339  0.01636283
   3.35585531  6.40752662  0.01007237
   3.35598594  7.83071962  0.01319763
  -0.34145776  4.27290193  0.00722612
  -0.34137895  5.69591010  0.00946273
   3.35624236  2.13791198  0.00222492
   3.35573251  3.56155103  0.00139405
  -1.57394684  6.40758280  0.01310850
  -1.57385216  7.83068434  0.01437823
   5.82093107  2.13783916  0.01033241
   5.82114012  3.56096622  0.01155939
   0.89092245  6.40754561  0.00907111
   0.89106251  7.83067670  0.01235474
   4.58870974  4.27292622  0.00849795
   4.58852320  5.69606300  0.01149026
   9.51844972  0.00336679  0.01490402
   9.51855036  1.42644387  0.01438264
   8.28593477  2.13803408  0.01452582
   8.28612680  3.56114872  0.01463668
   7.05356221  4.27268994  0.01457444
   7.05362213  5.69588251  0.01552751
   5.82112285  6.40754723  0.01489279
   5.82101669  7.83073350  0.01578780
   7.05362858  8.54227219  0.01630582
  -5.27148792  9.96548729  0.01495127
  -2.80637951  8.54234295  0.01558431
  -2.80626749  9.96552896  0.01362126
  -0.34148805  8.54239058  0.01378498
  -0.34137657  9.96550309  0.01353576
   2.12342586  8.54231992  0.01336337
   2.12354296  9.96544135  0.01469111
   4.58845581  8.54235337  0.01505154
   4.58852904  9.96549848  0.01517076
   3.04929830  2.68153618 10.00000000
   4.02070129  2.02068374 10.06442186
   2.07766701  3.34267235  9.94054513
 


--------------------------------------------------------------------------------------------------------


 k-point   1 :   0.0000 0.0000 0.0000  plane waves:  189031

 maximum and minimum number of plane-waves per node :    189031   189031

 maximum number of plane-waves:    189031
 maximum index in each direction: 
   IXMAX=   31   IYMAX=   31   IZMAX=   51
   IXMIN=  -31   IYMIN=  -31   IZMIN=  -51


 serial   3D FFT for wavefunctions
 parallel 3D FFT for charge:
    minimum data exchange during FFTs selected (reduces bandwidth)


 total amount of memory used by VASP MPI-rank0   556209. kBytes
=======================================================================

   base      :      30000. kBytes
   nonl-proj :     184518. kBytes
   fftplans  :      31725. kBytes
   grid      :     282516. kBytes
   one-center:        162. kBytes
   wavefun   :      27288. kBytes
 
     INWAV:  cpu time    0.0000: real time    0.0000
 Broyden mixing: mesh for mixing (old mesh)
   NGX = 63   NGY = 63   NGZ =103
  (NGX  =256   NGY  =256   NGZ  =420)
  gives a total of 408807 points

 initial charge density was supplied:
 charge density of overlapping atoms calculated
 number of electron     216.0000000 magnetization 
 keeping initial charge density in first step


--------------------------------------------------------------------------------------------------------


 Maximum index for augmentation-charges          459 (set IRDMAX)


--------------------------------------------------------------------------------------------------------


 First call to EWALD:  gamma=   0.128
 Maximum number of real-space cells 3x 3x 2
 Maximum number of reciprocal cells 3x 3x 4

    FEWALD:  cpu time    0.0034: real time    0.0034


--------------------------------------- Iteration      1(   1)  ---------------------------------------


    POTLOK:  cpu time    1.2714: real time    1.2807
    SETDIJ:  cpu time    0.2003: real time    0.2011
    TRIAL :  cpu time   21.8668: real time   22.0598
    CORREC:  cpu time    0.0008: real time    0.0010
    --------------------------------------------
      LOOP:  cpu time   23.3442: real time   23.5681

 eigenvalue-minimisations  :   336
 total energy-change (2. order) : 0.2410880E+04  (-0.1180566E+05)
 number of electron     216.0000000 magnetization 
 augmentation part      216.0000000 magnetization 

 Free energy of the ion-electron system (eV)
  ---------------------------------------------------
  alpha Z        PSCENC =        59.93625244
  Ewald energy   TEWEN  =     29209.91244113
  -Hartree energ DENC   =    -35385.37092715
  -exchange      EXHF   =         0.00000000
  -V(xc)+E(xc)   XCENC  =       605.05778228
  PAW double counting   =      6340.10990386    -6200.63067283
  entropy T*S    EENTRO =        -0.00018506
  eigenvalues    EBANDS =      -587.65812873
  atomic energy  EATOM  =      8369.52358910
  ---------------------------------------------------
  free energy    TOTEN  =      2410.88005504 eV

  energy without entropy =     2410.88024010  energy(sigma->0) =     2410.88014757


--------------------------------------------------------------------------------------------------------




--------------------------------------- Iteration      1(   2)  ---------------------------------------


    TRIAL :  cpu time   31.0849: real time   31.3299
    CORREC:  cpu time    0.0002: real time    0.0002
    --------------------------------------------
      LOOP:  cpu time   31.1082: real time   31.3588

 eigenvalue-minimisations  :   560
 total energy-change (2. order) :-0.2431805E+04  (-0.2301483E+04)
 number of electron     216.0000000 magnetization 
 augmentation part      216.0000000 magnetization 

 Free energy of the ion-electron system (eV)
  ---------------------------------------------------
  alpha Z        PSCENC =        59.93625244
  Ewald energy   TEWEN  =     29209.91244113
  -Hartree energ DENC   =    -35385.37092715
  -exchange      EXHF   =         0.00000000
  -V(xc)+E(xc)   XCENC  =       605.05778228
  PAW double counting   =      6340.10990386    -6200.63067283
  entropy T*S    EENTRO =        -0.00000000
  eigenvalues    EBANDS =     -3019.46356229
  atomic energy  EATOM  =      8369.52358910
  ---------------------------------------------------
  free energy    TOTEN  =       -20.92519346 eV

  energy without entropy =      -20.92519346  energy(sigma->0) =      -20.92519346


--------------------------------------------------------------------------------------------------------




--------------------------------------- Iteration      1(   3)  ---------------------------------------


    TRIAL :  cpu time   24.1480: real time   24.3359
    CORREC:  cpu time    0.0001: real time    0.0003
    --------------------------------------------
      LOOP:  cpu time   24.1938: real time   24.3847

 eigenvalue-minimisations  :   392
 total energy-change (2. order) :-0.5596583E+03  (-0.5566873E+03)
 number of electron     216.0000000 magnetization 
 augmentation part      216.0000000 magnetization 

 Free energy of the ion-electron system (eV)
  ---------------------------------------------------
  alpha Z        PSCENC =        59.93625244
  Ewald energy   TEWEN  =     29209.91244113
  -Hartree energ DENC   =    -35385.37092715
  -exchange      EXHF   =         0.00000000
  -V(xc)+E(xc)   XCENC  =       605.05778228
  PAW double counting   =      6340.10990386    -6200.63067283
  entropy T*S    EENTRO =        -0.00000000
  eigenvalues    EBANDS =     -3579.12184721
  atomic energy  EATOM  =      8369.52358910
  ---------------------------------------------------
  free energy    TOTEN  =      -580.58347838 eV

  energy without entropy =     -580.58347838  energy(sigma->0) =     -580.58347838


--------------------------------------------------------------------------------------------------------




--------------------------------------- Iteration      1(   4)  ---------------------------------------


    TRIAL :  cpu time   26.9194: real time   27.1275
    CORREC:  cpu time    0.0001: real time    0.0001
    --------------------------------------------
      LOOP:  cpu time   26.9471: real time   27.1689

 eigenvalue-minimisations  :   448
 total energy-change (2. order) :-0.2625365E+02  (-0.2610082E+02)
 number of electron     216.0000000 magnetization 
 augmentation part      216.0000000 magnetization 

 Free energy of the ion-electron system (eV)
  ---------------------------------------------------
  alpha Z        PSCENC =        59.93625244
  Ewald energy   TEWEN  =     29209.91244113
  -Hartree energ DENC   =    -35385.37092715
  -exchange      EXHF   =         0.00000000
  -V(xc)+E(xc)   XCENC  =       605.05778228
  PAW double counting   =      6340.10990386    -6200.63067283
  entropy T*S    EENTRO =        -0.00000000
  eigenvalues    EBANDS =     -3605.37549563
  atomic energy  EATOM  =      8369.52358910
  ---------------------------------------------------
  free energy    TOTEN  =      -606.83712681 eV

  energy without entropy =     -606.83712681  energy(sigma->0) =     -606.83712681


--------------------------------------------------------------------------------------------------------




--------------------------------------- Iteration      1(   5)  ---------------------------------------


    TRIAL :  cpu time   21.9300: real time   22.1026
    CORREC:  cpu time    0.0001: real time    0.0001
    CHARGE:  cpu time    2.2901: real time    2.3068
    --------------------------------------------
      LOOP:  cpu time   24.3411: real time   24.5315

 eigenvalue-minimisations  :   336
 total energy-change (2. order) :-0.9033385E+00  (-0.9029022E+00)
 number of electron     216.0000000 magnetization 
 augmentation part       -0.4469458 magnetization 

 Free energy of the ion-electron system (eV)
  ---------------------------------------------------
  alpha Z        PSCENC =        59.93625244
  Ewald energy   TEWEN  =     29209.91244113
  -Hartree energ DENC   =    -35385.37092715
  -exchange      EXHF   =         0.00000000
  -V(xc)+E(xc)   XCENC  =       605.05778228
  PAW double counting   =      6340.10990386    -6200.63067283
  entropy T*S    EENTRO =        -0.00000000
  eigenvalues    EBANDS =     -3606.27883414
  atomic energy  EATOM  =      8369.52358910
  ---------------------------------------------------
  free energy    TOTEN  =      -607.74046531 eV

  energy without entropy =     -607.74046531  energy(sigma->0) =     -607.74046531


--------------------------------------------------------------------------------------------------------




--------------------------------------- Iteration      1(   6)  ---------------------------------------


    POTLOK:  cpu time    1.2485: real time    1.2557
    SETDIJ:  cpu time    0.2019: real time    0.2026
    TRIAL :  cpu time   15.5660: real time   15.6884
    CORREC:  cpu time    6.8864: real time    6.9348
    CHARGE:  cpu time    2.2875: real time    2.3035
    --------------------------------------------
      LOOP:  cpu time   26.2711: real time   26.4676

 eigenvalue-minimisations  :     0
 total energy-change (2. order) : 0.9799976E+02  (-0.1124123E+02)
 number of electron     216.0000000 magnetization 
 augmentation part       -0.5089809 magnetization 

 Free energy of the ion-electron system (eV)
  ---------------------------------------------------
  alpha Z        PSCENC =        59.93625244
  Ewald energy   TEWEN  =     29209.91244113
  -Hartree energ DENC   =    -36699.94413601
  -exchange      EXHF   =         0.00000000
  -V(xc)+E(xc)   XCENC  =       676.77786605
  PAW double counting   =    119353.48551159  -119213.90163699
  entropy T*S    EENTRO =        -0.00000000
  eigenvalues    EBANDS =     -2265.53059507
  atomic energy  EATOM  =      8369.52358910
  ---------------------------------------------------
  free energy    TOTEN  =      -509.74070775 eV

  energy without entropy =     -509.74070775  energy(sigma->0) =     -509.74070775


--------------------------------------------------------------------------------------------------------




--------------------------------------- Iteration      1(   7)  ---------------------------------------


    POTLOK:  cpu time    1.2478: real time    1.2547
    SETDIJ:  cpu time    0.1978: real time    0.1984
    TRIAL :  cpu time   15.5446: real time   15.6761
    CORREC:  cpu time    6.8891: real time    6.9359
    CHARGE:  cpu time    2.2795: real time    2.2950
    --------------------------------------------
      LOOP:  cpu time   26.2100: real time   26.4176

 eigenvalue-minimisations  :     0
 total energy-change (2. order) :-0.1125546E+02  (-0.1494053E+01)
 number of electron     216.0000000 magnetization 
 augmentation part       -0.5427105 magnetization 

 Free energy of the ion-electron system (eV)
  ---------------------------------------------------
  alpha Z        PSCENC =        59.93625244
  Ewald energy   TEWEN  =     29209.91244113
  -Hartree energ DENC   =    -36300.53846310
  -exchange      EXHF   =         0.00000000
  -V(xc)+E(xc)   XCENC  =       659.19920031
  PAW double counting   =    138708.51407295  -138567.19093702
  entropy T*S    EENTRO =        -0.00000000
  eigenvalues    EBANDS =     -2660.35232556
  atomic energy  EATOM  =      8369.52358910
  ---------------------------------------------------
  free energy    TOTEN  =      -520.99616975 eV

  energy without entropy =     -520.99616975  energy(sigma->0) =     -520.99616975


--------------------------------------------------------------------------------------------------------




--------------------------------------- Iteration      1(   8)  ---------------------------------------


    POTLOK:  cpu time    1.2464: real time    1.2540
    SETDIJ:  cpu time    0.1946: real time    0.1953
    TRIAL :  cpu time   15.5695: real time   15.6963
    CORREC:  cpu time    6.9105: real time    6.9603
    CHARGE:  cpu time    2.2818: real time    2.2997
    --------------------------------------------
      LOOP:  cpu time   26.2830: real time   26.4901

 eigenvalue-minimisations  :     0
 total energy-change (2. order) :-0.1493619E+01  (-0.4889775E+00)
 number of electron     216.0000000 magnetization 
 augmentation part       -0.5439247 magnetization 

 Free energy of the ion-electron system (eV)
  ---------------------------------------------------
  alpha Z        PSCENC =        59.93625244
  Ewald energy   TEWEN  =     29209.91244113
  -Hartree energ DENC   =    -36269.69303181
  -exchange      EXHF   =         0.00000000
  -V(xc)+E(xc)   XCENC  =       658.09714759
  PAW double counting   =    148316.53468599  -148175.08598174
  entropy T*S    EENTRO =        -0.00000000
  eigenvalues    EBANDS =     -2691.71489102
  atomic energy  EATOM  =      8369.52358910
  ---------------------------------------------------
  free energy    TOTEN  =      -522.48978831 eV

  energy without entropy =     -522.48978831  energy(sigma->0) =     -522.48978831


--------------------------------------------------------------------------------------------------------




--------------------------------------- Iteration      1(   9)  ---------------------------------------


    POTLOK:  cpu time    1.2457: real time    1.2531
    SETDIJ:  cpu time    0.1935: real time    0.1941
    TRIAL :  cpu time   15.5857: real time   15.7044
    CORREC:  cpu time    6.8741: real time    6.9346
    CHARGE:  cpu time    2.2884: real time    2.3050
    --------------------------------------------
      LOOP:  cpu time   26.2587: real time   26.4744

 eigenvalue-minimisations  :     0
 total energy-change (2. order) :-0.4886212E+00  (-0.1987687E+00)
 number of electron     216.0000000 magnetization 
 augmentation part       -0.5406299 magnetization 

 Free energy of the ion-electron system (eV)
  ---------------------------------------------------
  alpha Z        PSCENC =        59.93625244
  Ewald energy   TEWEN  =     29209.91244113
  -Hartree energ DENC   =    -36275.89373139
  -exchange      EXHF   =         0.00000000
  -V(xc)+E(xc)   XCENC  =       658.03014681
  PAW double counting   =    156395.77242404  -156254.24997186
  entropy T*S    EENTRO =        -0.00000000
  eigenvalues    EBANDS =     -2686.00955975
  atomic energy  EATOM  =      8369.52358910
  ---------------------------------------------------
  free energy    TOTEN  =      -522.97840948 eV

  energy without entropy =     -522.97840948  energy(sigma->0) =     -522.97840948


--------------------------------------------------------------------------------------------------------




--------------------------------------- Iteration      1(  10)  ---------------------------------------


    POTLOK:  cpu time    1.2476: real time    1.2550
    SETDIJ:  cpu time    0.1927: real time    0.1933
    TRIAL :  cpu time   15.5778: real time   15.6950
    CORREC:  cpu time    6.8761: real time    6.9319
    CHARGE:  cpu time    2.2927: real time    2.3139
    --------------------------------------------
      LOOP:  cpu time   26.2563: real time   26.4744

 eigenvalue-minimisations  :     0
 total energy-change (2. order) :-0.1984673E+00  (-0.8820765E-01)
 number of electron     216.0000000 magnetization 
 augmentation part       -0.5347364 magnetization 

 Free energy of the ion-electron system (eV)
  ---------------------------------------------------
  alpha Z        PSCENC =        59.93625244
  Ewald energy   TEWEN  =     29209.91244113
  -Hartree energ DENC   =    -36275.17673340
  -exchange      EXHF   =         0.00000000
  -V(xc)+E(xc)   XCENC  =       657.92950730
  PAW double counting   =    160357.85883081  -160216.28476058
  entropy T*S    EENTRO =        -0.00000000
  eigenvalues    EBANDS =     -2686.87600362
  atomic energy  EATOM  =      8369.52358910
  ---------------------------------------------------
  free energy    TOTEN  =      -523.17687682 eV

  energy without entropy =     -523.17687682  energy(sigma->0) =     -523.17687682


--------------------------------------------------------------------------------------------------------




--------------------------------------- Iteration      1(  11)  ---------------------------------------


    POTLOK:  cpu time    1.2585: real time    1.2659
    SETDIJ:  cpu time    0.1835: real time    0.1841
    TRIAL :  cpu time   15.5700: real time   15.6903
    CORREC:  cpu time    6.8905: real time    6.9386
    CHARGE:  cpu time    2.2803: real time    2.2972
    --------------------------------------------
      LOOP:  cpu time   26.2034: real time   26.4120

 eigenvalue-minimisations  :     0
 total energy-change (2. order) :-0.8800780E-01  (-0.3394756E-01)
 number of electron     216.0000000 magnetization 
 augmentation part       -0.5307070 magnetization 

 Free energy of the ion-electron system (eV)
  ---------------------------------------------------
  alpha Z        PSCENC =        59.93625244
  Ewald energy   TEWEN  =     29209.91244113
  -Hartree energ DENC   =    -36269.24532237
  -exchange      EXHF   =         0.00000000
  -V(xc)+E(xc)   XCENC  =       657.85825084
  PAW double counting   =    160942.92674745  -160801.37306165
  entropy T*S    EENTRO =        -0.00000000
  eigenvalues    EBANDS =     -2692.80378156
  atomic energy  EATOM  =      8369.52358910
  ---------------------------------------------------
  free energy    TOTEN  =      -523.26488461 eV

  energy without entropy =     -523.26488461  energy(sigma->0) =     -523.26488461


--------------------------------------------------------------------------------------------------------




--------------------------------------- Iteration      1(  12)  ---------------------------------------


    POTLOK:  cpu time    1.2491: real time    1.2566
    SETDIJ:  cpu time    0.1920: real time    0.1926
    TRIAL :  cpu time   15.5741: real time   15.7000
    CORREC:  cpu time    6.8824: real time    6.9383
    CHARGE:  cpu time    2.2842: real time    2.3007
    --------------------------------------------
      LOOP:  cpu time   26.2537: real time   26.4631

 eigenvalue-minimisations  :     0
 total energy-change (2. order) :-0.3388916E-01  (-0.1026593E-01)
 number of electron     216.0000000 magnetization 
 augmentation part       -0.5303855 magnetization 

 Free energy of the ion-electron system (eV)
  ---------------------------------------------------
  alpha Z        PSCENC =        59.93625244
  Ewald energy   TEWEN  =     29209.91244113
  -Hartree energ DENC   =    -36264.66355255
  -exchange      EXHF   =         0.00000000
  -V(xc)+E(xc)   XCENC  =       657.78635199
  PAW double counting   =    160257.82610003  -160116.29987497
  entropy T*S    EENTRO =        -0.00000000
  eigenvalues    EBANDS =     -2697.32008095
  atomic energy  EATOM  =      8369.52358910
  ---------------------------------------------------
  free energy    TOTEN  =      -523.29877378 eV

  energy without entropy =     -523.29877378  energy(sigma->0) =     -523.29877378


--------------------------------------------------------------------------------------------------------




--------------------------------------- Iteration      1(  13)  ---------------------------------------


    POTLOK:  cpu time    1.2475: real time    1.2548
    SETDIJ:  cpu time    0.1952: real time    0.1959
    TRIAL :  cpu time   15.5766: real time   15.6933
    CORREC:  cpu time    6.8789: real time    6.9288
    CHARGE:  cpu time    2.2849: real time    2.3022
    --------------------------------------------
      LOOP:  cpu time   26.2269: real time   26.4323

 eigenvalue-minimisations  :     0
 total energy-change (2. order) :-0.1024538E-01  (-0.2815743E-02)
 number of electron     216.0000000 magnetization 
 augmentation part       -0.5308928 magnetization 

 Free energy of the ion-electron system (eV)
  ---------------------------------------------------
  alpha Z        PSCENC =        59.93625244
  Ewald energy   TEWEN  =     29209.91244113
  -Hartree energ DENC   =    -36263.49603279
  -exchange      EXHF   =         0.00000000
  -V(xc)+E(xc)   XCENC  =       657.74080425
  PAW double counting   =    159505.46518408  -159363.94366155
  entropy T*S    EENTRO =        -0.00000000
  eigenvalues    EBANDS =     -2698.44759582
  atomic energy  EATOM  =      8369.52358910
  ---------------------------------------------------
  free energy    TOTEN  =      -523.30901916 eV

  energy without entropy =     -523.30901916  energy(sigma->0) =     -523.30901916


--------------------------------------------------------------------------------------------------------




--------------------------------------- Iteration      1(  14)  ---------------------------------------


    POTLOK:  cpu time    1.2509: real time    1.2586
    SETDIJ:  cpu time    0.1942: real time    0.1949
    TRIAL :  cpu time   15.5546: real time   15.6751
    CORREC:  cpu time    6.8906: real time    6.9398
    CHARGE:  cpu time    2.2762: real time    2.2930
    --------------------------------------------
      LOOP:  cpu time   26.2181: real time   26.4169

 eigenvalue-minimisations  :     0
 total energy-change (2. order) :-0.2804546E-02  (-0.7934094E-03)
 number of electron     216.0000000 magnetization 
 augmentation part       -0.5312076 magnetization 

 Free energy of the ion-electron system (eV)
  ---------------------------------------------------
  alpha Z        PSCENC =        59.93625244
  Ewald energy   TEWEN  =     29209.91244113
  -Hartree energ DENC   =    -36263.65120117
  -exchange      EXHF   =         0.00000000
  -V(xc)+E(xc)   XCENC  =       657.73030148
  PAW double counting   =    159071.41944974  -158929.89657151
  entropy T*S    EENTRO =        -0.00000000
  eigenvalues    EBANDS =     -2698.28608492
  atomic energy  EATOM  =      8369.52358910
  ---------------------------------------------------
  free energy    TOTEN  =      -523.31182371 eV

  energy without entropy =     -523.31182371  energy(sigma->0) =     -523.31182371


--------------------------------------------------------------------------------------------------------




--------------------------------------- Iteration      1(  15)  ---------------------------------------


    POTLOK:  cpu time    1.2503: real time    1.2577
    SETDIJ:  cpu time    0.1927: real time    0.1933
    TRIAL :  cpu time   15.5369: real time   15.6740
    CORREC:  cpu time    6.8839: real time    6.9340
    CHARGE:  cpu time    2.2817: real time    2.3036
    --------------------------------------------
      LOOP:  cpu time   26.1834: real time   26.4027

 eigenvalue-minimisations  :     0
 total energy-change (2. order) :-0.7883510E-03  (-0.2522523E-03)
 number of electron     216.0000000 magnetization 
 augmentation part       -0.5314287 magnetization 

 Free energy of the ion-electron system (eV)
  ---------------------------------------------------
  alpha Z        PSCENC =        59.93625244
  Ewald energy   TEWEN  =     29209.91244113
  -Hartree energ DENC   =    -36263.59781471
  -exchange      EXHF   =         0.00000000
  -V(xc)+E(xc)   XCENC  =       657.72436045
  PAW double counting   =    158857.32157304  -158715.79735455
  entropy T*S    EENTRO =        -0.00000000
  eigenvalues    EBANDS =     -2698.33565896
  atomic energy  EATOM  =      8369.52358910
  ---------------------------------------------------
  free energy    TOTEN  =      -523.31261206 eV

  energy without entropy =     -523.31261206  energy(sigma->0) =     -523.31261206


--------------------------------------------------------------------------------------------------------




--------------------------------------- Iteration      1(  16)  ---------------------------------------


    POTLOK:  cpu time    1.2488: real time    1.2558
    SETDIJ:  cpu time    0.1962: real time    0.1968
    TRIAL :  cpu time   15.5630: real time   15.6919
    CORREC:  cpu time    6.8828: real time    6.9300
    CHARGE:  cpu time    2.2815: real time    2.2974
    --------------------------------------------
      LOOP:  cpu time   26.2129: real time   26.4266

 eigenvalue-minimisations  :     0
 total energy-change (2. order) :-0.2496715E-03  (-0.9413594E-04)
 number of electron     216.0000000 magnetization 
 augmentation part       -0.5315345 magnetization 

 Free energy of the ion-electron system (eV)
  ---------------------------------------------------
  alpha Z        PSCENC =        59.93625244
  Ewald energy   TEWEN  =     29209.91244113
  -Hartree energ DENC   =    -36263.51629356
  -exchange      EXHF   =         0.00000000
  -V(xc)+E(xc)   XCENC  =       657.71875175
  PAW double counting   =    158734.31931052  -158592.79339555
  entropy T*S    EENTRO =        -0.00000000
  eigenvalues    EBANDS =     -2698.41351757
  atomic energy  EATOM  =      8369.52358910
  ---------------------------------------------------
  free energy    TOTEN  =      -523.31286173 eV

  energy without entropy =     -523.31286173  energy(sigma->0) =     -523.31286173


--------------------------------------------------------------------------------------------------------




--------------------------------------- Iteration      1(  17)  ---------------------------------------


    POTLOK:  cpu time    1.2473: real time    1.2549
    SETDIJ:  cpu time    0.1973: real time    0.1980
    TRIAL :  cpu time   15.5669: real time   15.6853
    CORREC:  cpu time    6.8566: real time    6.9388
    CHARGE:  cpu time    2.2860: real time    2.3021
    --------------------------------------------
      LOOP:  cpu time   26.2047: real time   26.4325

 eigenvalue-minimisations  :     0
 total energy-change (2. order) :-0.9265749E-04  (-0.3970981E-04)
 number of electron     216.0000000 magnetization 
 augmentation part       -0.5315862 magnetization 

 Free energy of the ion-electron system (eV)
  ---------------------------------------------------
  alpha Z        PSCENC =        59.93625244
  Ewald energy   TEWEN  =     29209.91244113
  -Hartree energ DENC   =    -36263.69738380
  -exchange      EXHF   =         0.00000000
  -V(xc)+E(xc)   XCENC  =       657.72637246
  PAW double counting   =    158658.77341227  -158517.24741154
  entropy T*S    EENTRO =        -0.00000000
  eigenvalues    EBANDS =     -2698.24022644
  atomic energy  EATOM  =      8369.52358910
  ---------------------------------------------------
  free energy    TOTEN  =      -523.31295439 eV

  energy without entropy =     -523.31295439  energy(sigma->0) =     -523.31295439


--------------------------------------------------------------------------------------------------------




--------------------------------------- Iteration      1(  18)  ---------------------------------------


    POTLOK:  cpu time    1.2467: real time    1.2542
    SETDIJ:  cpu time    0.1965: real time    0.1971
    TRIAL :  cpu time   15.5746: real time   15.6909
    CORREC:  cpu time    6.8757: real time    6.9315
    CHARGE:  cpu time    2.2796: real time    2.2979
    --------------------------------------------
      LOOP:  cpu time   26.2083: real time   26.4330

 eigenvalue-minimisations  :     0
 total energy-change (2. order) :-0.4000112E-04  (-0.1495178E-04)
 number of electron     216.0000000 magnetization 
 augmentation part       -0.5316001 magnetization 

 Free energy of the ion-electron system (eV)
  ---------------------------------------------------
  alpha Z        PSCENC =        59.93625244
  Ewald energy   TEWEN  =     29209.91244113
  -Hartree energ DENC   =    -36263.76329525
  -exchange      EXHF   =         0.00000000
  -V(xc)+E(xc)   XCENC  =       657.72874081
  PAW double counting   =    158634.57005329  -158493.04370995
  entropy T*S    EENTRO =        -0.00000000
  eigenvalues    EBANDS =     -2698.17706596
  atomic energy  EATOM  =      8369.52358910
  ---------------------------------------------------
  free energy    TOTEN  =      -523.31299439 eV

  energy without entropy =     -523.31299439  energy(sigma->0) =     -523.31299439


--------------------------------------------------------------------------------------------------------




--------------------------------------- Iteration      1(  19)  ---------------------------------------


    POTLOK:  cpu time    1.2474: real time    1.2553
    SETDIJ:  cpu time    0.2004: real time    0.2011
    TRIAL :  cpu time   15.5746: real time   15.6899
    CORREC:  cpu time    6.9075: real time    6.9568
    CHARGE:  cpu time    2.2788: real time    2.2954
    --------------------------------------------
      LOOP:  cpu time   26.2445: real time   26.4628

 eigenvalue-minimisations  :     0
 total energy-change (2. order) :-0.1545632E-04  (-0.5626439E-05)
 number of electron     216.0000000 magnetization 
 augmentation part       -0.5315913 magnetization 

 Free energy of the ion-electron system (eV)
  ---------------------------------------------------
  alpha Z        PSCENC =        59.93625244
  Ewald energy   TEWEN  =     29209.91244113
  -Hartree energ DENC   =    -36263.75753340
  -exchange      EXHF   =         0.00000000
  -V(xc)+E(xc)   XCENC  =       657.72830950
  PAW double counting   =    158644.80965972  -158503.28307175
  entropy T*S    EENTRO =        -0.00000000
  eigenvalues    EBANDS =     -2698.18265659
  atomic energy  EATOM  =      8369.52358910
  ---------------------------------------------------
  free energy    TOTEN  =      -523.31300984 eV

  energy without entropy =     -523.31300984  energy(sigma->0) =     -523.31300984


--------------------------------------------------------------------------------------------------------




--------------------------------------- Iteration      1(  20)  ---------------------------------------


    POTLOK:  cpu time    1.2591: real time    1.2707
    SETDIJ:  cpu time    0.1825: real time    0.1832
    TRIAL :  cpu time   15.5619: real time   15.6825
    CORREC:  cpu time    6.8850: real time    6.9343
    CHARGE:  cpu time    2.2860: real time    2.3044
    --------------------------------------------
      LOOP:  cpu time   26.1991: real time   26.4309

 eigenvalue-minimisations  :     0
 total energy-change (2. order) :-0.5826034E-05  (-0.1969544E-05)
 number of electron     216.0000000 magnetization 
 augmentation part       -0.5315821 magnetization 

 Free energy of the ion-electron system (eV)
  ---------------------------------------------------
  alpha Z        PSCENC =        59.93625244
  Ewald energy   TEWEN  =     29209.91244113
  -Hartree energ DENC   =    -36263.77894443
  -exchange      EXHF   =         0.00000000
  -V(xc)+E(xc)   XCENC  =       657.72923217
  PAW double counting   =    158661.50365372  -158519.97716885
  entropy T*S    EENTRO =        -0.00000000
  eigenvalues    EBANDS =     -2698.16207096
  atomic energy  EATOM  =      8369.52358910
  ---------------------------------------------------
  free energy    TOTEN  =      -523.31301567 eV

  energy without entropy =     -523.31301567  energy(sigma->0) =     -523.31301567


--------------------------------------------------------------------------------------------------------




--------------------------------------- Iteration      1(  21)  ---------------------------------------


    POTLOK:  cpu time    1.2491: real time    1.2563
    SETDIJ:  cpu time    0.1977: real time    0.1984
    TRIAL :  cpu time   15.5559: real time   15.6714
    CORREC:  cpu time    6.8873: real time    6.9355
    CHARGE:  cpu time    2.2770: real time    2.2950
    --------------------------------------------
      LOOP:  cpu time   26.2063: real time   26.3992

 eigenvalue-minimisations  :     0
 total energy-change (2. order) :-0.2029468E-05  (-0.7310001E-06)
 number of electron     216.0000000 magnetization 
 augmentation part       -0.5315672 magnetization 

 Free energy of the ion-electron system (eV)
  ---------------------------------------------------
  alpha Z        PSCENC =        59.93625244
  Ewald energy   TEWEN  =     29209.91244113
  -Hartree energ DENC   =    -36263.78237915
  -exchange      EXHF   =         0.00000000
  -V(xc)+E(xc)   XCENC  =       657.72914812
  PAW double counting   =    158673.59683994  -158532.07040379
  entropy T*S    EENTRO =        -0.00000000
  eigenvalues    EBANDS =     -2698.15850550
  atomic energy  EATOM  =      8369.52358910
  ---------------------------------------------------
  free energy    TOTEN  =      -523.31301770 eV

  energy without entropy =     -523.31301770  energy(sigma->0) =     -523.31301770


--------------------------------------------------------------------------------------------------------




--------------------------------------- Iteration      1(  22)  ---------------------------------------


    POTLOK:  cpu time    1.2506: real time    1.2582
    SETDIJ:  cpu time    0.2036: real time    0.2043
    TRIAL :  cpu time   15.5706: real time   15.6911
    CORREC:  cpu time    6.8749: real time    6.9272
    CHARGE:  cpu time    2.2873: real time    2.3039
    --------------------------------------------
      LOOP:  cpu time   26.2074: real time   26.4157

 eigenvalue-minimisations  :     0
 total energy-change (2. order) :-0.7452327E-06  (-0.2924982E-06)
 number of electron     216.0000000 magnetization 
 augmentation part       -0.5315573 magnetization 

 Free energy of the ion-electron system (eV)
  ---------------------------------------------------
  alpha Z        PSCENC =        59.93625244
  Ewald energy   TEWEN  =     29209.91244113
  -Hartree energ DENC   =    -36263.77777833
  -exchange      EXHF   =         0.00000000
  -V(xc)+E(xc)   XCENC  =       657.72897872
  PAW double counting   =    158680.25501747  -158538.72867199
  entropy T*S    EENTRO =        -0.00000000
  eigenvalues    EBANDS =     -2698.16284698
  atomic energy  EATOM  =      8369.52358910
  ---------------------------------------------------
  free energy    TOTEN  =      -523.31301844 eV

  energy without entropy =     -523.31301844  energy(sigma->0) =     -523.31301844


--------------------------------------------------------------------------------------------------------




--------------------------------------- Iteration      1(  23)  ---------------------------------------


    POTLOK:  cpu time    1.2459: real time    1.2532
    SETDIJ:  cpu time    0.1959: real time    0.1965
    TRIAL :  cpu time   15.5662: real time   15.6836
    CORREC:  cpu time    6.8807: real time    6.9311
    CHARGE:  cpu time    2.2810: real time    2.2968
    --------------------------------------------
      LOOP:  cpu time   26.2319: real time   26.4254

 eigenvalue-minimisations  :     0
 total energy-change (2. order) :-0.2784654E-06  (-0.1705394E-06)
 number of electron     216.0000000 magnetization 
 augmentation part       -0.5315556 magnetization 

 Free energy of the ion-electron system (eV)
  ---------------------------------------------------
  alpha Z        PSCENC =        59.93625244
  Ewald energy   TEWEN  =     29209.91244113
  -Hartree energ DENC   =    -36263.77355903
  -exchange      EXHF   =         0.00000000
  -V(xc)+E(xc)   XCENC  =       657.72887524
  PAW double counting   =    158683.39311056  -158541.86682661
  entropy T*S    EENTRO =        -0.00000000
  eigenvalues    EBANDS =     -2698.16690155
  atomic energy  EATOM  =      8369.52358910
  ---------------------------------------------------
  free energy    TOTEN  =      -523.31301872 eV

  energy without entropy =     -523.31301872  energy(sigma->0) =     -523.31301872


--------------------------------------------------------------------------------------------------------




--------------------------------------- Iteration      1(  24)  ---------------------------------------


    POTLOK:  cpu time    1.2485: real time    1.2564
    SETDIJ:  cpu time    0.1925: real time    0.1931
    TRIAL :  cpu time   15.5599: real time   15.6790
    CORREC:  cpu time    6.8922: real time    6.9394
    CHARGE:  cpu time    2.2849: real time    2.3030
    --------------------------------------------
      LOOP:  cpu time   26.2529: real time   26.4486

 eigenvalue-minimisations  :     0
 total energy-change (2. order) :-0.9234645E-07  (-0.1425219E-06)
 number of electron     216.0000000 magnetization 
 augmentation part       -0.5315570 magnetization 

 Free energy of the ion-electron system (eV)
  ---------------------------------------------------
  alpha Z        PSCENC =        59.93625244
  Ewald energy   TEWEN  =     29209.91244113
  -Hartree energ DENC   =    -36263.76800491
  -exchange      EXHF   =         0.00000000
  -V(xc)+E(xc)   XCENC  =       657.72869029
  PAW double counting   =    158685.31092637  -158543.78465359
  entropy T*S    EENTRO =        -0.00000000
  eigenvalues    EBANDS =     -2698.17225964
  atomic energy  EATOM  =      8369.52358910
  ---------------------------------------------------
  free energy    TOTEN  =      -523.31301881 eV

  energy without entropy =     -523.31301881  energy(sigma->0) =     -523.31301881


--------------------------------------------------------------------------------------------------------




--------------------------------------- Iteration      1(  25)  ---------------------------------------


    POTLOK:  cpu time    1.2465: real time    1.2539
    SETDIJ:  cpu time    0.2005: real time    0.2012
    TRIAL :  cpu time   15.5727: real time   15.6970
    CORREC:  cpu time    6.8866: real time    6.9392
    CHARGE:  cpu time    2.2848: real time    2.3015
    --------------------------------------------
      LOOP:  cpu time   26.2635: real time   26.4670

 eigenvalue-minimisations  :     0
 total energy-change (2. order) : 0.4238100E-06  (-0.3355650E-06)
 number of electron     216.0000000 magnetization 
 augmentation part       -0.5315618 magnetization 

 Free energy of the ion-electron system (eV)
  ---------------------------------------------------
  alpha Z        PSCENC =        59.93625244
  Ewald energy   TEWEN  =     29209.91244113
  -Hartree energ DENC   =    -36263.76524473
  -exchange      EXHF   =         0.00000000
  -V(xc)+E(xc)   XCENC  =       657.72885811
  PAW double counting   =    158687.22336240  -158545.69715683
  entropy T*S    EENTRO =        -0.00000000
  eigenvalues    EBANDS =     -2698.17512001
  atomic energy  EATOM  =      8369.52358910
  ---------------------------------------------------
  free energy    TOTEN  =      -523.31301839 eV

  energy without entropy =     -523.31301839  energy(sigma->0) =     -523.31301839


--------------------------------------------------------------------------------------------------------




--------------------------------------- Iteration      1(  26)  ---------------------------------------


    POTLOK:  cpu time    1.2493: real time    1.2570
    SETDIJ:  cpu time    0.1958: real time    0.1965
    TRIAL :  cpu time   15.5655: real time   15.6925
    CORREC:  cpu time    6.8886: real time    6.9386
    CHARGE:  cpu time    2.2771: real time    2.2956
    --------------------------------------------
      LOOP:  cpu time   26.2223: real time   26.4273

 eigenvalue-minimisations  :     0
 total energy-change (2. order) :-0.3223249E-06  (-0.1904803E-06)
 number of electron     216.0000000 magnetization 
 augmentation part       -0.5315578 magnetization 

 Free energy of the ion-electron system (eV)
  ---------------------------------------------------
  alpha Z        PSCENC =        59.93625244
  Ewald energy   TEWEN  =     29209.91244113
  -Hartree energ DENC   =    -36263.76064288
  -exchange      EXHF   =         0.00000000
  -V(xc)+E(xc)   XCENC  =       657.72844099
  PAW double counting   =    158686.58153190  -158545.05524340
  entropy T*S    EENTRO =        -0.00000000
  eigenvalues    EBANDS =     -2698.17938798
  atomic energy  EATOM  =      8369.52358910
  ---------------------------------------------------
  free energy    TOTEN  =      -523.31301871 eV

  energy without entropy =     -523.31301871  energy(sigma->0) =     -523.31301871


--------------------------------------------------------------------------------------------------------




--------------------------------------- Iteration      1(  27)  ---------------------------------------


    POTLOK:  cpu time    1.2488: real time    1.2564
    SETDIJ:  cpu time    0.1950: real time    0.1957
    TRIAL :  cpu time   15.5647: real time   15.6811
    CORREC:  cpu time    6.8723: real time    6.9240
    CHARGE:  cpu time    2.2745: real time    2.3009
    --------------------------------------------
      LOOP:  cpu time   26.1714: real time   26.4017

 eigenvalue-minimisations  :     0
 total energy-change (2. order) :-0.1023291E-06  (-0.9462811E-07)
 number of electron     216.0000000 magnetization 
 augmentation part       -0.5315619 magnetization 

 Free energy of the ion-electron system (eV)
  ---------------------------------------------------
  alpha Z        PSCENC =        59.93625244
  Ewald energy   TEWEN  =     29209.91244113
  -Hartree energ DENC   =    -36263.77130397
  -exchange      EXHF   =         0.00000000
  -V(xc)+E(xc)   XCENC  =       657.72895958
  PAW double counting   =    158684.88832137  -158543.36208561
  entropy T*S    EENTRO =        -0.00000000
  eigenvalues    EBANDS =     -2698.16919286
  atomic energy  EATOM  =      8369.52358910
  ---------------------------------------------------
  free energy    TOTEN  =      -523.31301882 eV

  energy without entropy =     -523.31301882  energy(sigma->0) =     -523.31301882


--------------------------------------------------------------------------------------------------------




--------------------------------------- Iteration      1(  28)  ---------------------------------------


    POTLOK:  cpu time    1.2526: real time    1.2602
    SETDIJ:  cpu time    0.1898: real time    0.1905
    TRIAL :  cpu time   15.5795: real time   15.6963
    CORREC:  cpu time    6.7897: real time    6.8419
    EDDIAG:  cpu time    3.2040: real time    3.2286
    CHARGE:  cpu time    2.2798: real time    2.3028
    --------------------------------------------
      LOOP:  cpu time   29.3340: real time   29.5714

 eigenvalue-minimisations  :     0
 total energy-change (2. order) :-0.8416828E-07  ( 0.5568755E-07)
 number of electron     216.0000000 magnetization 
 augmentation part       -0.5315618 magnetization 

 Free energy of the ion-electron system (eV)
  ---------------------------------------------------
  alpha Z        PSCENC =        59.93625244
  Ewald energy   TEWEN  =     29209.91244113
  -Hartree energ DENC   =    -36263.76710790
  -exchange      EXHF   =         0.00000000
  -V(xc)+E(xc)   XCENC  =       657.72866878
  PAW double counting   =    158684.71801639  -158543.19172574
  entropy T*S    EENTRO =        -0.00000000
  eigenvalues    EBANDS =     -2698.17315309
  atomic energy  EATOM  =      8369.52358910
  ---------------------------------------------------
  free energy    TOTEN  =      -523.31301890 eV

  energy without entropy =     -523.31301890  energy(sigma->0) =     -523.31301890


--------------------------------------------------------------------------------------------------------


  average scaling for gradient   0.8196


 average (electrostatic) potential at core
[...]
      9     -22.3429      2.00000
     10     -20.3984      2.00000
     11     -20.3983      2.00000
     12     -20.3981      2.00000
     13     -20.3973      2.00000
     14     -20.3968      2.00000
     15     -20.3966      2.00000
     16     -19.4556      2.00000
     17     -19.4554      2.00000
     18     -19.4550      2.00000
     19     -19.4548      2.00000
     20     -19.4539      2.00000
     21     -19.4537      2.00000
     22     -17.2150      2.00000
     23     -17.2146      2.00000
     24     -17.2140      2.00000
     25     -17.2138      2.00000
     26     -17.2132      2.00000
     27     -17.2130      2.00000
     28     -16.0467      2.00000
     29     -16.0467      2.00000
     30     -16.0456      2.00000
     31     -16.0454      2.00000
     32     -16.0450      2.00000
     33     -16.0449      2.00000
     34     -14.6398      2.00000
     35     -14.6396      2.00000
     36     -14.6390      2.00000
     37     -14.6388      2.00000
     38     -14.6388      2.00000
     39     -14.6384      2.00000
     40     -12.8685      2.00000
     41     -12.1479      2.00000
     42     -12.1476      2.00000
     43     -12.1471      2.00000
     44     -12.1471      2.00000
     45     -12.1459      2.00000
     46     -12.1456      2.00000
     47     -11.9403      2.00000
     48     -11.9402      2.00000
     49     -11.9395      2.00000
     50     -11.9394      2.00000
     51     -11.9393      2.00000
     52     -11.9391      2.00000
     53     -11.5232      2.00000
     54     -11.3283      2.00000
     55     -11.3281      2.00000
     56     -10.6312      2.00000
     57     -10.4778      2.00000
     58     -10.4777      2.00000
     59     -10.4760      2.00000
     60     -10.4757      2.00000
     61     -10.4755      2.00000
     62     -10.4754      2.00000
     63      -9.4548      2.00000
     64      -9.4535      2.00000
     65      -9.4533      2.00000
     66      -9.4532      2.00000
     67      -9.4531      2.00000
     68      -9.4526      2.00000
     69      -9.1463      2.00000
     70      -9.1450      2.00000
     71      -9.1447      2.00000
     72      -9.1446      2.00000
     73      -9.1442      2.00000
     74      -9.1440      2.00000
     75      -9.1397      2.00000
     76      -9.1394      2.00000
     77      -9.1385      2.00000
     78      -9.1383      2.00000
     79      -9.1381      2.00000
     80      -9.1375      2.00000
     81      -7.6906      2.00000
     82      -7.6905      2.00000
     83      -7.4012      2.00000
     84      -7.3994      2.00000
     85      -7.3992      2.00000
     86      -7.3989      2.00000
     87      -7.3980      2.00000
     88      -7.3979      2.00000
     89      -7.2066      2.00000
     90      -7.2063      2.00000
     91      -7.2061      2.00000
     92      -7.2057      2.00000
     93      -7.2052      2.00000
     94      -7.2050      2.00000
     95      -6.2611      2.00000
     96      -6.2609      2.00000
     97      -6.2607      2.00000
     98      -6.2606      2.00000
     99      -6.2599      2.00000
    100      -6.2596      2.00000
    101      -5.8291      2.00000
    102      -5.8268      2.00000
    103      -4.1616      2.00000
    104      -4.1611      2.00000
    105      -4.1606      2.00000
    106      -4.1605      2.00000
    107      -4.1600      2.00000
    108      -4.1600      2.00000
    109      -1.1677      0.00000
    110      -1.1675      0.00000
    111      -1.1672      0.00000
    112      -1.1671      0.00000
    113      -1.1663      0.00000
    114      -1.1660      0.00000
    115       0.8242      0.00000
    116       0.8245      0.00000
    117       0.8248      0.00000
    118       0.8249      0.00000
    119       0.8253      0.00000
    120       0.8264      0.00000
    121       1.0666      0.00000
    122       1.3366      0.00000
    123       1.5307      0.00000
    124       1.5311      0.00000
    125       1.8066      0.00000
    126       2.3393      0.00000
    127       2.3821      0.00000
    128       2.3888      0.00000
    129       2.3913      0.00000
    130       2.3942      0.00000
    131       2.3949      0.00000
    132       2.4980      0.00000
    133       2.6924      0.00000
    134       2.6925      0.00000
    135       2.6928      0.00000
    136       2.6928      0.00000
    137       2.6936      0.00000
    138       2.6960      0.00000
    139       2.8795      0.00000
    140       3.0244      0.00000
    141       3.0950      0.00000
    142       3.0972      0.00000
    143       3.1141      0.00000
    144       3.1299      0.00000
    145       3.1347      0.00000
    146       3.1370      0.00000
    147       3.2090      0.00000
    148       3.2267      0.00000
    149       3.2577      0.00000
    150       3.2947      0.00000
    151       3.3352      0.00000
    152       4.3437      0.00000
    153       4.3668      0.00000
    154       4.5693      0.00000
    155       4.7942      0.00000
    156       4.8812      0.00000
    157       4.9855      0.00000
    158       5.0349      0.00000
    159       5.0894      0.00000
    160       5.1179      0.00000
    161       5.1379      0.00000
    162       5.1738      0.00000
    163       5.2189      0.00000
    164       5.2205      0.00000
    165       5.2205      0.00000
    166       5.2215      0.00000
    167       5.2223      0.00000
    168       5.2265      0.00000


--------------------------------------------------------------------------------------------------------


 soft charge-density along one line, spin component           1
         0         1         2         3         4         5         6         7         8         9
 total charge-density along one line
 
 pseudopotential strength for first ion, spin component:           1
 12.626  21.244   0.000   0.000   0.000   0.000   0.000   0.000
 21.244  35.745   0.000   0.000   0.000   0.000   0.000   0.000
  0.000   0.000  -3.230  -0.000   0.000  -5.784   0.000   0.000
  0.000   0.000  -0.000  -3.230  -0.000   0.000  -5.784  -0.000
  0.000   0.000   0.000  -0.000  -3.230   0.000  -0.000  -5.784
  0.000   0.000  -5.784   0.000   0.000 -10.336   0.000   0.000
  0.000   0.000   0.000  -5.784  -0.000   0.000 -10.335  -0.000
  0.000   0.000   0.000  -0.000  -5.784   0.000  -0.000 -10.336
 total augmentation occupancy for first ion, spin component:           1
 10.264  -3.894  -0.000  -0.002  -0.000   0.000   0.001   0.000
 -3.894   1.507   0.000   0.001   0.000  -0.000  -0.000  -0.000
 -0.000   0.000   8.469  -0.009   0.000  -3.024   0.003  -0.000
 -0.002   0.001  -0.009   4.016  -0.000   0.003  -1.207   0.000
 -0.000   0.000   0.000  -0.000   8.468  -0.000   0.000  -3.024
  0.000  -0.000  -3.024   0.003  -0.000   1.093  -0.001   0.000
  0.001  -0.000   0.003  -1.207   0.000  -0.001   0.368  -0.000
  0.000  -0.000  -0.000   0.000  -3.024   0.000  -0.000   1.093


------------------------ aborting loop because EDIFF is reached ----------------------------------------


    FORLOC:  cpu time    0.1043: real time    0.1058
    FORNL :  cpu time    2.8963: real time    2.9218
    FORCOR:  cpu time    1.2604: real time    1.2677
    OFIELD:  cpu time    0.0024: real time    0.0025

 VOLUME and BASIS-vectors are now :
 -----------------------------------------------------------------------------
  energy-cutoff  :     1000.00
  volume of cell :     2631.08
      direct lattice vectors                 reciprocal lattice vectors
    12.325000000  0.000000000  0.000000000     0.081135903  0.046843835  0.000000000
    -6.162500000 10.673763102  0.000000000     0.000000000  0.093687670  0.000000000
     0.000000000  0.000000000 20.000000000     0.000000000  0.000000000  0.050000000

  length of vectors
    12.325000000 12.325000000 20.000000000     0.093687670  0.093687670  0.050000000


 FORCES acting on ions:
    Electron-Ion                     Ewald-Force                    Non-Local-Force
 -----------------------------------------------------------------------------------------------
   0.485E+00 0.432E+00 -.553E+00   -.486E+00 -.434E+00 0.547E+00   0.428E-02 -.641E-03 0.570E-02
   0.657E+00 0.385E+00 0.794E-02   -.660E+00 -.382E+00 -.526E-02   0.245E-02 -.309E-02 -.626E-02
   0.266E+00 0.707E+00 -.442E+00   -.267E+00 -.707E+00 0.438E+00   -.340E-03 0.111E-01 -.304E-02
   0.333E+00 0.472E+00 0.101E+01   -.330E+00 -.471E+00 -.100E+01   0.113E-01 0.438E-03 -.189E-01
   0.554E+00 0.152E+00 -.750E-01   -.552E+00 -.153E+00 0.703E-01   -.771E-03 -.511E-02 0.459E-02
   0.565E+00 -.135E+00 0.895E-01   -.568E+00 0.136E+00 -.898E-01   -.645E-02 0.341E-02 -.117E-02
   0.615E+00 0.300E+00 0.137E+01   -.616E+00 -.301E+00 -.136E+01   0.112E-01 -.190E-01 -.826E-02
   0.652E+00 -.188E+00 0.254E+01   -.657E+00 0.191E+00 -.252E+01   -.776E-02 -.509E-02 -.656E-02
   -.297E+00 0.734E+00 0.560E-01   0.300E+00 -.736E+00 -.544E-01   0.313E-03 -.137E-01 -.530E-02
   -.346E+00 0.320E+00 0.148E+01   0.347E+00 -.320E+00 -.147E+01   -.254E-01 0.144E-01 0.129E-02
   0.140E+00 -.152E+00 -.366E+00   -.137E+00 0.152E+00 0.364E+00   0.413E-02 -.265E-02 0.196E-02
   0.151E+00 -.124E+00 -.397E+00   -.151E+00 0.125E+00 0.390E+00   -.639E-02 0.319E-02 0.797E-02
   0.143E+00 -.489E+00 0.308E+01   -.143E+00 0.490E+00 -.306E+01   0.259E-01 -.718E-02 -.375E-02
   0.978E-01 -.797E+00 0.124E+01   -.101E+00 0.799E+00 -.123E+01   0.315E-02 0.728E-02 -.170E-01
   -.543E+00 0.322E+00 -.395E+00   0.545E+00 -.324E+00 0.385E+00   0.755E-02 -.425E-02 0.955E-02
   -.662E+00 0.165E+00 -.499E+00   0.661E+00 -.165E+00 0.498E+00   -.983E-03 0.483E-02 -.345E-02
   -.938E-01 -.399E-01 -.773E+00   0.964E-01 0.381E-01 0.769E+00   0.343E-03 0.372E-03 0.278E-02
   0.478E-01 0.326E+00 -.830E+00   -.475E-01 -.327E+00 0.820E+00   -.271E-02 0.139E-02 0.974E-02
   -.142E+00 -.746E+00 0.273E+00   0.142E+00 0.748E+00 -.274E+00   0.553E-02 -.117E-02 -.248E-03
   -.895E-01 -.469E+00 -.297E+00   0.866E-01 0.470E+00 0.297E+00   -.261E-03 -.517E-03 -.298E-03
   0.720E+00 -.295E+00 0.900E+00   -.719E+00 0.296E+00 -.889E+00   -.231E-02 -.181E-02 -.157E-01
   0.529E+00 -.414E+00 0.459E+00   -.532E+00 0.416E+00 -.460E+00   -.695E-02 0.539E-02 -.317E-03
   -.102E+00 0.178E+00 0.251E+01   0.978E-01 -.176E+00 -.249E+01   -.104E-01 0.103E-01 -.244E-02
   -.170E+00 -.302E+00 0.256E+01   0.173E+00 0.300E+00 -.254E+01   0.119E-01 -.146E-01 -.145E-01
   0.279E+00 -.944E-01 -.274E+00   -.277E+00 0.931E-01 0.274E+00   0.384E-02 -.270E-02 -.976E-03
   0.934E-01 0.245E+00 -.495E+00   -.938E-01 -.244E+00 0.488E+00   -.481E-02 0.307E-02 0.758E-02
   -.770E+00 0.391E-01 0.306E+00   0.774E+00 -.413E-01 -.306E+00   0.126E-01 0.751E-02 -.310E-02
   -.685E+00 -.308E+00 -.169E+00   0.686E+00 0.308E+00 0.166E+00   -.796E-02 0.901E-02 -.416E-03
   0.271E+00 -.588E+00 0.478E+00   -.270E+00 0.588E+00 -.476E+00   0.378E-02 0.253E-02 -.532E-02
   0.263E-01 -.251E+00 -.161E+00   -.284E-01 0.253E+00 0.162E+00   -.490E-02 0.240E-02 -.257E-03
   -.483E+00 -.479E+00 0.402E+00   0.481E+00 0.480E+00 -.397E+00   -.116E-01 -.761E-02 -.163E-01
   -.365E+00 -.723E+00 -.139E+00   0.367E+00 0.722E+00 0.134E+00   0.703E-03 -.488E-03 0.346E-03
   0.156E-01 0.174E+00 -.524E+00   -.152E-01 -.175E+00 0.516E+00   0.476E-02 -.456E-02 0.877E-02
   0.816E-01 0.138E+00 -.526E+00   -.846E-01 -.137E+00 0.525E+00   -.231E-02 0.462E-02 0.686E-03
   -.358E+00 0.679E-01 -.543E+00   0.360E+00 -.688E-01 0.536E+00   0.445E-02 -.254E-02 0.793E-02
   -.312E+00 -.154E+00 -.571E+00   0.310E+00 0.154E+00 0.565E+00   -.329E-02 0.213E-02 0.547E-02
   -.564E+00 -.326E+00 -.671E+00   0.567E+00 0.324E+00 0.667E+00   -.149E-03 0.103E-02 0.354E-02
   -.381E+00 -.313E+00 -.718E+00   0.382E+00 0.314E+00 0.709E+00   -.342E-02 0.134E-02 0.921E-02
   -.350E+00 -.442E+00 -.678E+00   0.349E+00 0.443E+00 0.674E+00   -.266E-02 0.669E-03 0.409E-02
   -.469E-01 -.133E+00 -.719E+00   0.480E-01 0.132E+00 0.712E+00   0.179E-02 0.865E-03 0.699E-02
   0.141E+00 0.334E+00 -.860E+00   -.142E+00 -.334E+00 0.854E+00   -.387E-02 0.149E-02 0.660E-02
   0.414E+00 0.594E+00 -.760E+00   -.413E+00 -.595E+00 0.751E+00   -.106E-02 -.115E-02 0.655E-02
   0.571E-01 0.549E+00 -.834E+00   -.542E-01 -.550E+00 0.830E+00   0.198E-03 0.174E-03 0.300E-02
   0.187E-01 0.767E+00 -.528E+00   -.182E-01 -.768E+00 0.520E+00   -.777E-02 0.121E-02 0.459E-02
   -.113E+00 0.206E+00 -.435E+00   0.115E+00 -.208E+00 0.432E+00   0.419E-02 -.329E-02 0.382E-02
   -.366E+00 0.492E+00 -.418E+00   0.365E+00 -.491E+00 0.417E+00   -.551E-02 -.222E-03 0.402E-03
   -.132E+00 -.241E+00 -.238E+00   0.132E+00 0.241E+00 0.231E+00   0.576E-02 -.120E-02 0.784E-02
   -.232E+00 0.792E-01 -.573E+00   0.231E+00 -.784E-01 0.572E+00   -.363E-02 0.334E-02 -.108E-02
   0.153E-01 -.145E+00 -.574E+00   -.153E-01 0.145E+00 0.569E+00   0.393E-02 -.293E-02 0.598E-02
   0.235E+00 0.171E+00 -.629E+00   -.237E+00 -.170E+00 0.625E+00   -.629E-03 0.182E-02 0.372E-02
   -.729E-02 0.331E-01 0.468E+00   0.283E-02 -.290E-01 -.429E+00   -.279E-02 0.183E-02 -.101E-02
   -.228E+03 0.155E+03 -.109E+02   0.279E+03 -.190E+03 0.143E+02   -.523E+02 0.356E+02 -.351E+01
   0.228E+03 -.155E+03 0.871E+01   -.279E+03 0.190E+03 -.118E+02   0.523E+02 -.356E+02 0.316E+01
 -----------------------------------------------------------------------------------------------
   -.827E-02 0.144E-01 0.357E+00   0.568E-13 0.000E+00 -.178E-14   0.785E-02 -.149E-01 -.348E+00
 
 
 POSITION                                       TOTAL-FORCE (eV/Angst)
 -----------------------------------------------------------------------------------
     11.98348      0.00342      0.01417         0.003504     -0.001933     -0.001440
     -0.34154      1.42665      0.01100        -0.000776     -0.000094     -0.003713
      2.12355      0.00315      0.01249        -0.002244      0.011065     -0.007325
      2.12326      1.42653      0.00641         0.014207      0.001045     -0.008671
     10.75099      2.13819      0.01213         0.000968     -0.005932     -0.000167
     -1.57382      3.56123      0.01110        -0.009468      0.004498     -0.001480
      0.89078      2.13854      0.00548         0.009990     -0.019781      0.002814
      0.89099      3.56147      0.00181        -0.011921     -0.002795      0.013407
      4.58864      0.00346      0.01135         0.003512     -0.016155     -0.003942
      4.58894      1.42623      0.00646        -0.024043      0.013624      0.015305
      9.51854      4.27281      0.01369         0.007040     -0.002907      0.000085
     -2.80632      5.69591      0.01434        -0.007148      0.003419      0.000673
      2.12300      4.27302      0.00000         0.025605     -0.005197      0.022884
      2.12335      5.69594      0.00581        -0.000489      0.009117     -0.002554
      7.05344      0.00333      0.01399         0.009515     -0.005714     -0.000620
      7.05353      1.42635      0.01368        -0.001912      0.005165     -0.004122
      8.28610      6.40752      0.01601         0.003075     -0.001155     -0.001130
     -4.03885      7.83070      0.01636        -0.002587      0.001048     -0.000420
      3.35586      6.40753      0.01007         0.005658      0.000641     -0.001219
      3.35599      7.83072      0.01320        -0.002944      0.000194     -0.000843
     -0.34146      4.27290      0.00723        -0.001560     -0.001463     -0.004347
     -0.34138      5.69591      0.00946        -0.009478      0.006587     -0.001108
      3.35624      2.13791      0.00222        -0.014627      0.012300      0.017774
      3.35573      3.56155      0.00139         0.014424     -0.016736      0.009868
     -1.57395      6.40758      0.01311         0.005599     -0.003921     -0.000573
     -1.57385      7.83068      0.01438        -0.005310      0.004091     -0.000236
      5.82093      2.13784      0.01033         0.016002      0.005128     -0.003260
      5.82114      3.56097      0.01156        -0.006502      0.008891     -0.004330
      0.89092      6.40755      0.00907         0.004836      0.002260     -0.002094
      0.89106      7.83068      0.01235        -0.006912      0.004297      0.000251
      4.58871      4.27293      0.00850        -0.013798     -0.006262     -0.011569
      4.58852      5.69606      0.01149         0.002572     -0.001615     -0.004455
      9.51845      0.00337      0.01490         0.005118     -0.005007     -0.000060
      9.51855      1.42644      0.01438        -0.005418      0.005479     -0.000459
      8.28593      2.13803      0.01453         0.007203     -0.003504      0.000287
      8.28613      3.56115      0.01464        -0.004754      0.002216     -0.000162
      7.05356      4.27269      0.01457         0.002607     -0.000955     -0.001170
      7.05362      5.69588      0.01553        -0.002663      0.001574     -0.000346
      5.82112      6.40755      0.01489        -0.003277      0.002017     -0.000410
      5.82102      7.83073      0.01579         0.003072      0.000219     -0.000584
      7.05363      8.54227      0.01631        -0.004830      0.001560      0.000778
     -5.27149      9.96549      0.01495         0.000491     -0.002045     -0.002793
     -2.80638      8.54234      0.01558         0.003164     -0.001395     -0.001623
     -2.80627      9.96553      0.01362        -0.007281      0.000158     -0.004521
     -0.34149      8.54239      0.01378         0.005861     -0.005338      0.000153
     -0.34138      9.96550      0.01354        -0.006127      0.000386     -0.001499
      2.12343      8.54232      0.01336         0.006083     -0.001825      0.000797
      2.12354      9.96544      0.01469        -0.005117      0.004243     -0.002124
      4.58846      8.54235      0.01505         0.003883     -0.002882      0.000856
      4.58853      9.96550      0.01517        -0.002606      0.003529     -0.000117
      3.04930      2.68154     10.00000        -0.007279      0.005845      0.039870
      4.02070      2.02068     10.06442        -1.425142      0.969257     -0.111117
      2.07767      3.34267      9.94055         1.432223     -0.975244      0.070805
 -----------------------------------------------------------------------------------
    total drift:                               -0.000427     -0.000520      0.008547


--------------------------------------------------------------------------------------------------------



  FREE ENERGIE OF THE ION-ELECTRON SYSTEM (eV)
  ---------------------------------------------------
  free  energy   TOTEN  =      -523.31301890 eV

  energy  without entropy=     -523.31301890  energy(sigma->0) =     -523.31301890
 


--------------------------------------------------------------------------------------------------------


    POTLOK:  cpu time    1.4394: real time    1.4479


--------------------------------------------------------------------------------------------------------


 writing wavefunctions
     LOOP+:  cpu time  765.7265: real time  771.9879
    4ORBIT:  cpu time    0.0000: real time    0.0000

 total amount of memory used by VASP MPI-rank0   556209. kBytes
=======================================================================

   base      :      30000. kBytes
   nonl-proj :     184518. kBytes
   fftplans  :      31725. kBytes
   grid      :     282516. kBytes
   one-center:        162. kBytes
   wavefun   :      27288. kBytes
 
  
  
 General timing and accounting informations for this job:
 ========================================================
  
                  Total CPU time used (sec):      802.310
                            User time (sec):      780.793
                          System time (sec):       21.517
                         Elapsed time (sec):      809.934
  
                   Maximum memory used (kb):     1035600.
                   Average memory used (kb):          N/A
  
                          Minor page faults:       220569
                          Major page faults:           82
                 Voluntary context switches:         3837
