 vasp.6.2.1 16May21 (build Nov 06 2021 14:46:37) complex                        
  
 executed on             LinuxIFC date 2025.04.16  17:03:04
 running on  112 total cores
 distrk:  each k-point on   56 cores,    2 groups
 distr:  one band on NCORE=   1 cores,   56 groups


--------------------------------------------------------------------------------------------------------


 INCAR:
   ALGO = Conjugate
   KPAR = 2
   NCORE = 32
   ISMEAR = 0
   SIGMA = 0.01
   PREC = Accurate
   EDIFF = 1E-7
   ENCUT = 1000
   ISIF = 0
   METAGGA = R2SCAN
   LASPH = .TRUE.
   SYMPREC = 1E-7

 POTCAR:    PAW_PBE C_h 06Feb2004                 
 POTCAR:    PAW_PBE O_h 06Feb2004                 
 -----------------------------------------------------------------------------
|                                                                             |
|           W    W    AA    RRRRR   N    N  II  N    N   GGGG   !!!           |
|           W    W   A  A   R    R  NN   N  II  NN   N  G    G  !!!           |
|           W    W  A    A  R    R  N N  N  II  N N  N  G       !!!           |
|           W WW W  AAAAAA  RRRRR   N  N N  II  N  N N  G  GGG   !            |
|           WW  WW  A    A  R   R   N   NN  II  N   NN  G    G                |
|           W    W  A    A  R    R  N    N  II  N    N   GGGG   !!!           |
|                                                                             |
|     The value NCORE = 32 specified in the INCAR file was overwritten,       |
|     because it was not compatible with the 56 processes available:          |
|     NCORE = 1                                                               |
|     was used instead, please check that this makes sense for your           |
|     machine.                                                                |
|                                                                             |
 -----------------------------------------------------------------------------

 -----------------------------------------------------------------------------
|                                                                             |
|           W    W    AA    RRRRR   N    N  II  N    N   GGGG   !!!           |
|           W    W   A  A   R    R  NN   N  II  NN   N  G    G  !!!           |
|           W    W  A    A  R    R  N N  N  II  N N  N  G       !!!           |
|           W WW W  AAAAAA  RRRRR   N  N N  II  N  N N  G  GGG   !            |
|           WW  WW  A    A  R   R   N   NN  II  N   NN  G    G                |
|           W    W  A    A  R    R  N    N  II  N    N   GGGG   !!!           |
|                                                                             |
|     For optimal performance we recommend to set                             |
|       NCORE = 2 up to number-of-cores-per-socket                            |
|     NCORE specifies how many cores store one orbital (NPAR=cpu/NCORE).      |
|     This setting can greatly improve the performance of VASP for DFT.       |
|     The default, NCORE=1 might be grossly inefficient on modern             |
|     multi-core architectures or massively parallel machines. Do your        |
|     own testing! More info at https://www.vasp.at/wiki/index.php/NCORE      |
|     Unfortunately you need to use the default for GW and RPA                |
|     calculations (for HF NCORE is supported but not extensively tested      |
|     yet).                                                                   |
|                                                                             |
 -----------------------------------------------------------------------------

 POTCAR:    PAW_PBE C_h 06Feb2004                 
   VRHFIN =C: s2p2                                                                                  
   LEXCH  = PE                                                                                      
   EATOM  =   147.1560 eV,   10.8157 Ry                                                             
                                                                                                    
   TITEL  = PAW_PBE C_h 06Feb2004                                                                   
   LULTRA =        F    use ultrasoft PP ?                                                          
   IUNSCR =        1    unscreen: 0-lin 1-nonlin 2-no                                               
   RPACOR =    0.800    partial core radius                                                         
   POMASS =   12.011; ZVAL   =    4.000    mass and valenz                                          
   RCORE  =    1.100    outmost cutoff radius                                                       
   RWIGS  =    1.630; RWIGS  =    0.863    wigner-seitz radius (au A)                               
   ENMAX  =  700.000; ENMIN  =  500.000 eV                                                          
   ICORE  =        2    local potential                                                             
   LCOR   =        T    correct aug charges                                                         
   LPAW   =        T    paw PP                                                                      
   EAUG   =  946.768                                                                                
   DEXC   =    0.000                                                                                
   RMAX   =    1.128    core radius for proj-oper                                                   
   RAUG   =    1.300    factor for augmentation sphere                                              
   RDEP   =    1.162    radius for radial grids                                                     
   RDEPT  =    1.088    core radius for aug-charge                                                  
                                                                                                    
   Atomic configuration                                                                             
    4 entries                                                                                       
     n  l   j            E        occ.                                                              
     1  0  0.50      -273.3789   2.0000                                                             
     2  0  0.50       -13.7508   2.0000                                                             
     2  1  0.50        -5.2854   2.0000                                                             
     3  2  1.50        -5.4423   0.0000                                                             
   Description                                                                                      
     l       E           TYP  RCUT    TYP  RCUT                                                     
     0    -13.7508458     23  1.100                                                                 
     0     -8.2022199     23  1.100                                                                 
     1     -5.2854383     23  1.100                                                                 
     1      1.1560700     23  1.100                                                                 
     2     -5.4423304      7  1.100                                                                 
  local pseudopotential read in
  partial core-charges read in
  partial kinetic energy density read in
  atomic valenz-charges read in
  non local Contribution for L=           0  read in
    real space projection operators read in
  non local Contribution for L=           0  read in
    real space projection operators read in
  non local Contribution for L=           1  read in
    real space projection operators read in
  non local Contribution for L=           1  read in
    real space projection operators read in
    PAW grid and wavefunctions read in
 
   number of l-projection  operators is LMAX  =           4
   number of lm-projection operators is LMMAX =           8
 
 POTCAR:    PAW_PBE O_h 06Feb2004                 
   VRHFIN =O: s2p4                                                                                  
   LEXCH  = PE                                                                                      
   EATOM  =   432.3788 eV,   31.7789 Ry                                                             
                                                                                                    
   TITEL  = PAW_PBE O_h 06Feb2004                                                                   
   LULTRA =        F    use ultrasoft PP ?                                                          
   IUNSCR =        1    unscreen: 0-lin 1-nonlin 2-no                                               
   RPACOR =    0.800    partial core radius                                                         
   POMASS =   16.000; ZVAL   =    6.000    mass and valenz                                          
   RCORE  =    1.100    outmost cutoff radius                                                       
   RWIGS  =    1.400; RWIGS  =    0.741    wigner-seitz radius (au A)                               
   ENMAX  =  700.000; ENMIN  =  500.000 eV                                                          
   ICORE  =        2    local potential                                                             
   LCOR   =        T    correct aug charges                                                         
   LPAW   =        T    paw PP                                                                      
   EAUG   =  888.804                                                                                
   DEXC   =    0.000                                                                                
   RMAX   =    1.128    core radius for proj-oper                                                   
   RAUG   =    1.300    factor for augmentation sphere                                              
   RDEP   =    1.125    radius for radial grids                                                     
   RDEPT  =    1.088    core radius for aug-charge                                                  
                                                                                                    
   Atomic configuration                                                                             
    4 entries                                                                                       
     n  l   j            E        occ.                                                              
     1  0  0.50      -514.6923   2.0000                                                             
     2  0  0.50       -23.9615   2.0000                                                             
     2  1  0.50        -9.0305   4.0000                                                             
     3  2  1.50        -9.5241   0.0000                                                             
   Description                                                                                      
     l       E           TYP  RCUT    TYP  RCUT                                                     
     0    -23.9615319     23  1.100                                                                 
     0    -25.3221145     23  1.100                                                                 
     1     -9.0304911     23  1.100                                                                 
     1     -5.4802209     23  1.100                                                                 
     2     -9.5240782      7  1.100                                                                 
  local pseudopotential read in
  partial core-charges read in
  partial kinetic energy density read in
  atomic valenz-charges read in
  non local Contribution for L=           0  read in
    real space projection operators read in
  non local Contribution for L=           0  read in
    real space projection operators read in
  non local Contribution for L=           1  read in
    real space projection operators read in
  non local Contribution for L=           1  read in
    real space projection operators read in
    PAW grid and wavefunctions read in
 
   number of l-projection  operators is LMAX  =           4
   number of lm-projection operators is LMMAX =           8
 
 -----------------------------------------------------------------------------
|                                                                             |
|               ----> ADVICE to this user running VASP <----                  |
|                                                                             |
|     You have a (more or less) 'large supercell' and for larger cells it     |
|     might be more efficient to use real-space projection operators.         |
|     Therefore, try LREAL= Auto in the INCAR file.                           |
|     Mind: For very accurate calculation, you might also keep the            |
|     reciprocal projection scheme (i.e. LREAL=.FALSE.).                      |
|                                                                             |
 -----------------------------------------------------------------------------

  PAW_PBE C_h 06Feb2004                 :
 energy of atom  1       EATOM= -147.1560
 kinetic energy error for atom=    0.0031 (will be added to EATOM!!)
  PAW_PBE O_h 06Feb2004                 :
 energy of atom  2       EATOM= -432.3788
 kinetic energy error for atom=    0.0171 (will be added to EATOM!!)
 
 
 POSCAR:  C  O
  positions in cartesian coordinates
  No initial velocities read in

 METAGGA = R2SCA    LMAXTAU =  6    LMIXTAU =  F

 exchange correlation table for  LEXCH =        8
   RHO(1)=    0.500       N(1)  =     2000
   RHO(2)=  100.500       N(2)  =     4000
 


--------------------------------------------------------------------------------------------------------


 ion  position               nearest neighbor table
   1  0.972  0.000  0.001-  50 1.42   2 1.42  42 1.42
   2  0.039  0.134  0.000-   5 1.42   7 1.42   1 1.42
   3  0.172  0.000  0.000-  42 1.42  44 1.42   4 1.42
   4  0.239  0.134  0.000-   7 1.42   3 1.42  23 1.42
   5  0.972  0.200  0.000-   6 1.42   2 1.42  34 1.42
   6  0.039  0.334  0.000-   5 1.42  21 1.42  11 1.42
   7  0.172  0.200  0.000-   8 1.42   2 1.42   4 1.42
   8  0.239  0.334  0.000-  13 1.42   7 1.42  21 1.42
   9  0.372  0.000  0.000-  10 1.42  44 1.42  46 1.42
  10  0.439  0.134  0.000-  27 1.42   9 1.42  23 1.42
  11  0.972  0.400  0.001-  12 1.42  36 1.42   6 1.42
  12  0.039  0.534  0.001-  25 1.42  11 1.42  17 1.42
  13  0.372  0.400  0.000-   8 1.42  14 1.42  24 1.42
  14  0.439  0.534  0.000-  13 1.42  29 1.42  19 1.42
  15  0.572  0.000  0.001-  46 1.42  16 1.42  48 1.42
  16  0.639  0.134  0.001-  15 1.42  35 1.42  27 1.42
  17  0.972  0.600  0.001-  38 1.42  18 1.42  12 1.42
  18  0.039  0.734  0.001-  43 1.42  41 1.42  17 1.42
  19  0.572  0.600  0.000-  14 1.42  20 1.42  32 1.42
  20  0.639  0.734  0.001-  49 1.42  19 1.42  47 1.42
  21  0.172  0.400  0.000-  22 1.42   8 1.42   6 1.42
  22  0.239  0.534  0.000-  21 1.42  29 1.42  25 1.42
  23  0.372  0.200  0.000-  10 1.42   4 1.42  24 1.42
  24  0.439  0.334  0.000-  13 1.42  31 1.42  23 1.42
  25  0.172  0.600  0.001-  26 1.42  12 1.42  22 1.42
  26  0.239  0.734  0.001-  25 1.42  45 1.42  43 1.42
  27  0.572  0.200  0.000-  10 1.42  28 1.42  16 1.42
  28  0.639  0.334  0.000-  27 1.42  37 1.42  31 1.42
  29  0.372  0.600  0.000-  22 1.42  14 1.42  30 1.42
  30  0.439  0.734  0.000-  47 1.42  29 1.42  45 1.42
  31  0.572  0.400  0.000-  32 1.42  28 1.42  24 1.42
  32  0.639  0.534  0.000-  31 1.42  39 1.42  19 1.42
  33  0.772  0.000  0.001-  34 1.42  48 1.42  50 1.42
  34  0.839  0.134  0.001-  33 1.42   5 1.42  35 1.42
  35  0.772  0.200  0.001-  36 1.42  16 1.42  34 1.42
  36  0.839  0.334  0.001-  35 1.42  11 1.42  37 1.42
  37  0.772  0.400  0.001-  28 1.42  38 1.42  36 1.42
  38  0.839  0.534  0.001-  17 1.42  37 1.42  39 1.42
  39  0.772  0.600  0.001-  40 1.42  38 1.42  32 1.42
  40  0.839  0.734  0.001-  39 1.42  49 1.42  41 1.42
  41  0.972  0.800  0.001-  18 1.42  42 1.42  40 1.42
  42  0.039  0.934  0.001-   3 1.42  41 1.42   1 1.42
  43  0.172  0.800  0.001-  18 1.42  44 1.42  26 1.42
  44  0.239  0.934  0.001-   9 1.42  43 1.42   3 1.42
  45  0.372  0.800  0.001-  26 1.42  46 1.42  30 1.42
  46  0.439  0.934  0.001-  15 1.42  45 1.42   9 1.42
  47  0.572  0.800  0.001-  30 1.42  48 1.42  20 1.42
  48  0.639  0.934  0.001-  47 1.42  33 1.42  15 1.42
  49  0.772  0.800  0.001-  50 1.42  20 1.42  40 1.42
  50  0.839  0.934  0.001-  49 1.42   1 1.42  33 1.42
  51  0.373  0.251  0.106-  52 1.18  53 1.18
  52  0.421  0.189  0.109-  51 1.18
  53  0.325  0.313  0.104-  51 1.18
 
  LATTYP: Found a hexagonal cell.
 ALAT       =    12.3250000000
 C/A-ratio  =     2.0283975659
  
  Lattice vectors:
  
 A1 = (  12.3250000000,   0.0000000000,   0.0000000000)
 A2 = (  -6.1625000000,  10.6737631016,   0.0000000000)
 A3 = (   0.0000000000,   0.0000000000,  25.0000000000)


Analysis of symmetry for initial positions (statically):
=====================================================================
 Subroutine PRICEL returns:
 Original cell was already a primitive cell.
 

 Routine SETGRP: Setting up the symmetry group for a 
 hexagonal supercell.


 Subroutine GETGRP returns: Found  1 space group operations
 (whereof  1 operations were pure point group operations)
 out of a pool of 24 trial point group operations.


The static configuration has the point symmetry C_1 .


Analysis of symmetry for dynamics (positions and initial velocities):
=====================================================================
 Subroutine PRICEL returns:
 Original cell was already a primitive cell.
 

 Routine SETGRP: Setting up the symmetry group for a 
 hexagonal supercell.


 Subroutine GETGRP returns: Found  1 space group operations
 (whereof  1 operations were pure point group operations)
 out of a pool of 24 trial point group operations.


The dynamic configuration has the point symmetry C_1 .


 Subroutine INISYM returns: Found  1 space group operations
 (whereof  1 operations are pure point group operations),
 and found     1 'primitive' translations


----------------------------------------------------------------------------------------

                                     Primitive cell                                     

  volume of cell :    3288.8533

  direct lattice vectors                    reciprocal lattice vectors
    12.325000000  0.000000000  0.000000000     0.081135903  0.046843835  0.000000000
    -6.162500000 10.673763102  0.000000000     0.000000000  0.093687670  0.000000000
     0.000000000  0.000000000 25.000000000     0.000000000  0.000000000  0.040000000

  length of vectors
    12.325000000 12.325000000 25.000000000     0.093687670  0.093687670  0.040000000

  position of ions in fractional coordinates (direct lattice)
     0.972450841  0.000320818  0.000566711
     0.039118382  0.133659505  0.000440173
     0.172443627  0.000295449  0.000499628
     0.239096278  0.133647917  0.000256468
     0.972452058  0.200322012  0.000485219
     0.039128360  0.333643771  0.000444150
     0.172451764  0.200354552  0.000219167
     0.239124359  0.333665720  0.000072260
     0.372465565  0.000324403  0.000453913
     0.439137473  0.133619939  0.000258338
     0.972449824  0.400309362  0.000547611
     0.039124981  0.533636789  0.000573410
     0.372416176  0.400329481  0.000000000
     0.439099602  0.533638981  0.000232414
     0.572443676  0.000312125  0.000559580
     0.639110207  0.133631751  0.000547275
     0.972452703  0.600305653  0.000640289
     0.039124495  0.733640359  0.000654513
     0.572433471  0.600306242  0.000402895
     0.639111888  0.733641879  0.000527905
     0.172454630  0.400318228  0.000289045
     0.239120185  0.533636548  0.000378509
     0.372459750  0.200295993  0.000088997
     0.439107096  0.333673419  0.000055762
     0.172452155  0.600311506  0.000524340
     0.239123371  0.733638574  0.000575129
     0.572431082  0.200289171  0.000413296
     0.639112773  0.333618630  0.000462376
     0.372439808  0.600308022  0.000362844
     0.439116090  0.733637858  0.000494190
     0.572469358  0.400320504  0.000339918
     0.639119408  0.533650873  0.000459610
     0.772445723  0.000315427  0.000596161
     0.839116277  0.133640203  0.000575306
     0.772440513  0.200307432  0.000581033
     0.839120241  0.333635728  0.000585467
     0.772446320  0.400298367  0.000582978
     0.839118980  0.533633964  0.000621100
     0.772456143  0.600308173  0.000595712
     0.839115033  0.733643180  0.000631512
     0.972455313  0.800305582  0.000652233
     0.039114714  0.933643289  0.000598051
     0.172457971  0.800312211  0.000623372
     0.239134551  0.933647193  0.000544850
     0.372451396  0.800316674  0.000551399
     0.439124489  0.933644769  0.000541430
     0.572441101  0.800310054  0.000534535
     0.639115067  0.933638985  0.000587644
     0.772445098  0.800313187  0.000602062
     0.839116614  0.933644338  0.000606830
     0.373021009  0.251226878  0.105946310
     0.420879805  0.189313152  0.108523184
     0.325156981  0.313167186  0.103568115

  ion indices of the primitive-cell ions
   primitive index   ion index
                 1           1
                 2           2
                 3           3
                 4           4
                 5           5
                 6           6
                 7           7
                 8           8
                 9           9
                10          10
                11          11
                12          12
                13          13
                14          14
                15          15
                16          16
                17          17
                18          18
                19          19
                20          20
                21          21
                22          22
                23          23
                24          24
                25          25
                26          26
                27          27
                28          28
                29          29
                30          30
                31          31
                32          32
                33          33
                34          34
                35          35
                36          36
                37          37
                38          38
                39          39
                40          40
                41          41
                42          42
                43          43
                44          44
                45          45
                46          46
                47          47
                48          48
                49          49
                50          50
                51          51
                52          52
                53          53

----------------------------------------------------------------------------------------

 
 
 KPOINTS: auto                                    

Automatic generation of k-mesh.
 Grid dimensions read from file:
 generate k-points for:    1    1    1

 Generating k-lattice:

  Cartesian coordinates                     Fractional coordinates (reciprocal lattice)
     0.081135903  0.046843835  0.000000000     1.000000000 -0.000000000  0.000000000
     0.000000000  0.093687670  0.000000000     0.000000000  1.000000000  0.000000000
     0.000000000  0.000000000  0.040000000     0.000000000  0.000000000  1.000000000

  Length of vectors
     0.093687670  0.093687670  0.040000000

  Shift w.r.t. Gamma in fractional coordinates (k-lattice)
     0.000000000  0.000000000  0.000000000

 
 Subroutine IBZKPT returns following result:
 ===========================================
 
 Found      1 irreducible k-points:
 
 Following reciprocal coordinates:
            Coordinates               Weight
  0.000000  0.000000  0.000000      1.000000
 
 Following cartesian coordinates:
            Coordinates               Weight
  0.000000  0.000000  0.000000      1.000000
 


--------------------------------------------------------------------------------------------------------




 Dimension of arrays:
   k-points           NKPTS =      1   k-points in BZ     NKDIM =      1   number of bands    NBANDS=    168
   number of dos      NEDOS =    301   number of ions     NIONS =     53
   non local maximal  LDIM  =      4   non local SUM 2l+1 LMDIM =      8
   total plane-waves  NPLWV = ******
   max r-space proj   IRMAX =      1   max aug-charges    IRDMAX=  10008
   dimension x,y,z NGX =   128 NGY =  128 NGZ =  270
   dimension x,y,z NGXF=   256 NGYF=  256 NGZF=  540
   support grid    NGXF=   256 NGYF=  256 NGZF=  540
   ions per type =              51   2
   NGX,Y,Z   is equivalent  to a cutoff of  17.27, 17.27, 17.95 a.u.
   NGXF,Y,Z  is equivalent  to a cutoff of  34.53, 34.53, 35.91 a.u.

 SYSTEM =  unknown system                          
 POSCAR =   C  O                                   

 Startparameter for this run:
   NWRITE =      2    write-flag & timer
   PREC   = accura    normal or accurate (medium, high low for compatibility)
   ISTART =      0    job   : 0-new  1-cont  2-samecut
   ICHARG =      2    charge: 1-file 2-atom 10-const
   ISPIN  =      1    spin polarized calculation?
   LNONCOLLINEAR =      F non collinear calculations
   LSORBIT =      F    spin-orbit coupling
   INIWAV =      1    electr: 0-lowe 1-rand  2-diag
   LASPH  =      T    aspherical Exc in radial PAW
 Electronic Relaxation 1
   ENCUT  = 1000.0 eV  73.50 Ry    8.57 a.u.  31.78 31.78 64.46*2*pi/ulx,y,z
   ENINI  = 1000.0     initial cutoff
   ENAUG  =  946.8 eV  augmentation charge cutoff
   NELM   =     60;   NELMIN=  2; NELMDL= -5     # of ELM steps 
   EDIFF  = 0.1E-06   stopping-criterion for ELM
   LREAL  =      F    real-space projection
   NLSPLINE    = F    spline interpolate recip. space projectors
   LCOMPAT=      F    compatible to vasp.4.4
   GGA_COMPAT  = T    GGA compatible to vasp.4.4-vasp.4.6
   LMAXPAW     = -100 max onsite density
   LMAXMIX     =    2 max onsite mixed and CHGCAR
   VOSKOWN=      0    Vosko Wilk Nusair interpolation
   ROPT   =    0.00000   0.00000
 Ionic relaxation
   EDIFFG = 0.1E-05   stopping-criterion for IOM
   NSW    =      0    number of steps for IOM
   NBLOCK =      1;   KBLOCK =      1    inner block; outer block 
   IBRION =     -1    ionic relax: 0-MD 1-quasi-New 2-CG
   NFREE  =      0    steps in history (QN), initial steepest desc. (CG)
   ISIF   =      0    stress and relaxation
   IWAVPR =     10    prediction:  0-non 1-charg 2-wave 3-comb
   ISYM   =      2    0-nonsym 1-usesym 2-fastsym
   LCORR  =      T    Harris-Foulkes like correction to forces

   POTIM  = 0.5000    time-step for ionic-motion
   TEIN   =    0.0    initial temperature
   TEBEG  =    0.0;   TEEND  =   0.0 temperature during run
   SMASS  =  -3.00    Nose mass-parameter (am)
   estimated Nose-frequenzy (Omega)   =  0.10E-29 period in steps = 0.13E+47 mass=  -0.347E-26a.u.
   SCALEE = 1.0000    scale energy and forces
   NPACO  =    256;   APACO  = 16.0  distance and # of slots for P.C.
   PSTRESS=    0.0 pullay stress

  Mass of Ions in am
   POMASS =  12.01 16.00
  Ionic Valenz
   ZVAL   =   4.00  6.00
  Atomic Wigner-Seitz radii
   RWIGS  =  -1.00 -1.00
  virtual crystal weights 
   VCA    =   1.00  1.00
   NELECT =     216.0000    total number of electrons
   NUPDOWN=      -1.0000    fix difference up-down

 DOS related values:
   EMIN   =  10.00;   EMAX   =-10.00  energy-range for DOS
   EFERMI =   0.00
   ISMEAR =     0;   SIGMA  =   0.01  broadening in eV -4-tet -1-fermi 0-gaus

 Electronic relaxation 2 (details)
   IALGO  =     58    algorithm
   LDIAG  =      T    sub-space diagonalisation (order eigenvalues)
   LSUBROT=      F    optimize rotation matrix (better conditioning)
   TURBO    =      0    0=normal 1=particle mesh
   IRESTART =      0    0=no restart 2=restart with 2 vectors
   NREBOOT  =      0    no. of reboots
   NMIN     =      0    reboot dimension
   EREF     =   0.00    reference energy to select bands
   IMIX   =      4    mixing-type and parameters
     AMIX     =   0.40;   BMIX     =  1.00
     AMIX_MAG =   1.60;   BMIX_MAG =  1.00
     AMIN     =   0.10
     WC   =   100.;   INIMIX=   1;  MIXPRE=   1;  MAXMIX= -45

 Intra band minimization:
   WEIMIN = 0.0000     energy-eigenvalue tresh-hold
   EBREAK =  0.15E-09  absolut break condition
   DEPER  =   0.30     relativ break condition  

   TIME   =   0.40     timestep for ELM

  volume/ion in A,a.u.               =      62.05       418.76
  Fermi-wavevector in a.u.,A,eV,Ry     =   0.660508  1.248179  5.935820  0.436270
  Thomas-Fermi vector in A             =   1.732977
 
 Write flags
   LWAVE        =      T    write WAVECAR
   LDOWNSAMPLE  =      F    k-point downsampling of WAVECAR
   LCHARG       =      T    write CHGCAR
   LVTOT        =      F    write LOCPOT, total local potential
   LVHAR        =      F    write LOCPOT, Hartree potential only
   LELF         =      F    write electronic localiz. function (ELF)
   LORBIT       =      0    0 simple, 1 ext, 2 COOP (PROOUT), +10 PAW based schemes


 Dipole corrections
   LMONO  =      F    monopole corrections only (constant potential shift)
   LDIPOL =      F    correct potential (dipole corrections)
   IDIPOL =      0    1-x, 2-y, 3-z, 4-all directions 
   EPSILON=  1.0000000 bulk dielectric constant

 Exchange correlation treatment:
   GGA     =    --    GGA type
   LEXCH   =     8    internal setting for exchange type
   VOSKOWN=      0    Vosko Wilk Nusair interpolation
   LHFCALC =     F    Hartree Fock is set to
   LHFONE  =     F    Hartree Fock one center treatment
   AEXX    =    0.0000 exact exchange contribution

 Linear response parameters
   LEPSILON=     F    determine dielectric tensor
   LRPA    =     F    only Hartree local field effects (RPA)
   LNABLA  =     F    use nabla operator in PAW spheres
   LVEL    =     F    velocity operator in full k-point grid
   LINTERFAST=   F  fast interpolation
   KINTER  =     0    interpolate to denser k-point grid
   CSHIFT  =0.1000    complex shift for real part using Kramers Kronig
   OMEGAMAX=  -1.0    maximum frequency
   DEG_THRESHOLD= 0.2000000E-02 threshold for treating states as degnerate
   RTIME   =   -0.100 relaxation time in fs
  (WPLASMAI=    0.000 imaginary part of plasma frequency in eV, 0.658/RTIME)
   DFIELD  = 0.0000000 0.0000000 0.0000000 field for delta impulse in time
 
 Orbital magnetization related:
   ORBITALMAG=     F  switch on orbital magnetization
   LCHIMAG   =     F  perturbation theory with respect to B field
   DQ        =  0.001000  dq finite difference perturbation B field
   LLRAUG    =     F  two centre corrections for induced B field



--------------------------------------------------------------------------------------------------------


 Static calculation
 charge density and potential will be updated during run
 non-spin polarized calculation
 Conjugate gradient for all bands (Freysoldt, et al. PRB 79, 241103 (2009))
 preconditioned conjugated gradient                                        
 perform sub-space diagonalisation
    before iterative eigenvector-optimisation
 modified Broyden-mixing scheme, WC =      100.0
 initial mixing is a Kerker type mixing with AMIX =  0.4000 and BMIX =      1.0000
 Hartree-type preconditioning will be used
 using additional bands           60
 reciprocal scheme for non local part
 use partial core corrections
 no Harris-corrections to forces 
 use gradient corrections 
 use of overlap-Matrix (Vanderbilt PP)
 Gauss-broadening in eV      SIGMA  =   0.01


--------------------------------------------------------------------------------------------------------


  energy-cutoff  :     1000.00
  volume of cell :     3288.85
      direct lattice vectors                 reciprocal lattice vectors
    12.325000000  0.000000000  0.000000000     0.081135903  0.046843835  0.000000000
    -6.162500000 10.673763102  0.000000000     0.000000000  0.093687670  0.000000000
     0.000000000  0.000000000 25.000000000     0.000000000  0.000000000  0.040000000

  length of vectors
    12.325000000 12.325000000 25.000000000     0.093687670  0.093687670  0.040000000


 
 k-points in units of 2pi/SCALE and weight: auto                                    
   0.00000000  0.00000000  0.00000000       1.000
 
 k-points in reciprocal lattice and weights: auto                                    
   0.00000000  0.00000000  0.00000000       1.000
 
 position of ions in fractional coordinates (direct lattice) 
   0.97245084  0.00032082  0.00056671
   0.03911838  0.13365950  0.00044017
   0.17244363  0.00029545  0.00049963
   0.23909628  0.13364792  0.00025647
   0.97245206  0.20032201  0.00048522
   0.03912836  0.33364377  0.00044415
   0.17245176  0.20035455  0.00021917
   0.23912436  0.33366572  0.00007226
   0.37246557  0.00032440  0.00045391
   0.43913747  0.13361994  0.00025834
   0.97244982  0.40030936  0.00054761
   0.03912498  0.53363679  0.00057341
   0.37241618  0.40032948  0.00000000
   0.43909960  0.53363898  0.00023241
   0.57244368  0.00031213  0.00055958
   0.63911021  0.13363175  0.00054727
   0.97245270  0.60030565  0.00064029
   0.03912449  0.73364036  0.00065451
   0.57243347  0.60030624  0.00040289
   0.63911189  0.73364188  0.00052791
   0.17245463  0.40031823  0.00028904
   0.23912018  0.53363655  0.00037851
   0.37245975  0.20029599  0.00008900
   0.43910710  0.33367342  0.00005576
   0.17245216  0.60031151  0.00052434
   0.23912337  0.73363857  0.00057513
   0.57243108  0.20028917  0.00041330
   0.63911277  0.33361863  0.00046238
   0.37243981  0.60030802  0.00036284
   0.43911609  0.73363786  0.00049419
   0.57246936  0.40032050  0.00033992
   0.63911941  0.53365087  0.00045961
   0.77244572  0.00031543  0.00059616
   0.83911628  0.13364020  0.00057531
   0.77244051  0.20030743  0.00058103
   0.83912024  0.33363573  0.00058547
   0.77244632  0.40029837  0.00058298
   0.83911898  0.53363396  0.00062110
   0.77245614  0.60030817  0.00059571
   0.83911503  0.73364318  0.00063151
   0.97245531  0.80030558  0.00065223
   0.03911471  0.93364329  0.00059805
   0.17245797  0.80031221  0.00062337
   0.23913455  0.93364719  0.00054485
   0.37245140  0.80031667  0.00055140
   0.43912449  0.93364477  0.00054143
   0.57244110  0.80031005  0.00053453
   0.63911507  0.93363899  0.00058764
   0.77244510  0.80031319  0.00060206
   0.83911661  0.93364434  0.00060683
   0.37302101  0.25122688  0.10594631
   0.42087980  0.18931315  0.10852318
   0.32515698  0.31316719  0.10356811
 
 position of ions in cartesian coordinates  (Angst):
  11.98347958  0.00342433  0.01416777
  -0.34154264  1.42664989  0.01100432
   2.12354700  0.00315355  0.01249070
   2.12325634  1.42652621  0.00641170
  10.75098721  2.13818970  0.01213047
  -1.57382270  3.56123457  0.01110375
   0.89078307  2.13853702  0.00547917
   0.89099273  3.56146885  0.00180651
   4.58863896  0.00346260  0.01134782
   4.58893648  1.42622757  0.00645846
   9.51853763  4.27280730  0.01369027
  -2.80632132  5.69591267  0.01433526
   2.12299894  4.27302204  0.00000000
   2.12335237  5.69593607  0.00581036
   7.05344483  0.00333155  0.01398950
   7.05352764  1.42635365  0.01368187
   8.28609598  6.40752033  0.01600723
  -4.03884931  7.83070339  0.01636283
   3.35585531  6.40752662  0.01007237
   3.35598594  7.83071962  0.01319763
  -0.34145776  4.27290193  0.00722612
  -0.34137895  5.69591010  0.00946273
   3.35624236  2.13791198  0.00222492
   3.35573251  3.56155103  0.00139405
  -1.57394684  6.40758280  0.01310850
  -1.57385216  7.83068434  0.01437823
   5.82093107  2.13783916  0.01033241
   5.82114012  3.56096622  0.01155939
   0.89092245  6.40754561  0.00907111
   0.89106251  7.83067670  0.01235474
   4.58870974  4.27292622  0.00849795
   4.58852320  5.69606300  0.01149026
   9.51844972  0.00336679  0.01490402
   9.51855036  1.42644387  0.01438264
   8.28593477  2.13803408  0.01452582
   8.28612680  3.56114872  0.01463668
   7.05356221  4.27268994  0.01457444
   7.05362213  5.69588251  0.01552751
   5.82112285  6.40754723  0.01489279
   5.82101669  7.83073350  0.01578780
   7.05362858  8.54227219  0.01630582
  -5.27148792  9.96548729  0.01495127
  -2.80637951  8.54234295  0.01558431
  -2.80626749  9.96552896  0.01362126
  -0.34148805  8.54239058  0.01378498
  -0.34137657  9.96550309  0.01353576
   2.12342586  8.54231992  0.01336337
   2.12354296  9.96544135  0.01469111
   4.58845581  8.54235337  0.01505154
   4.58852904  9.96549848  0.01517076
   3.04929830  2.68153618  2.64865774
   4.02070129  2.02068374  2.71307960
   2.07766701  3.34267235  2.58920287
 


--------------------------------------------------------------------------------------------------------


 k-point   1 :   0.0000 0.0000 0.0000  plane waves:  236157

 maximum and minimum number of plane-waves per node :    236157   236157

 maximum number of plane-waves:    236157
 maximum index in each direction: 
   IXMAX=   31   IYMAX=   31   IZMAX=   64
   IXMIN=  -31   IYMIN=  -31   IZMIN=  -64


 serial   3D FFT for wavefunctions
 parallel 3D FFT for charge:
    minimum data exchange during FFTs selected (reduces bandwidth)


 total amount of memory used by VASP MPI-rank0   698619. kBytes
=======================================================================

   base      :      30000. kBytes
   nonl-proj :     230539. kBytes
   fftplans  :      40716. kBytes
   grid      :     363125. kBytes
   one-center:        162. kBytes
   wavefun   :      34077. kBytes
 
     INWAV:  cpu time    0.0000: real time    0.0000
 Broyden mixing: mesh for mixing (old mesh)
   NGX = 63   NGY = 63   NGZ =129
  (NGX  =256   NGY  =256   NGZ  =540)
  gives a total of 512001 points

 initial charge density was supplied:
 charge density of overlapping atoms calculated
 number of electron     216.0000000 magnetization 
 keeping initial charge density in first step


--------------------------------------------------------------------------------------------------------


 Maximum index for augmentation-charges          471 (set IRDMAX)


--------------------------------------------------------------------------------------------------------


 First call to EWALD:  gamma=   0.119
 Maximum number of real-space cells 4x 4x 2
 Maximum number of reciprocal cells 2x 2x 4

    FEWALD:  cpu time    0.0044: real time    0.0045


--------------------------------------- Iteration      1(   1)  ---------------------------------------


    POTLOK:  cpu time    1.7117: real time    1.7223
    SETDIJ:  cpu time    0.2138: real time    0.2147
    TRIAL :  cpu time   27.3995: real time   27.6522
    CORREC:  cpu time    0.0008: real time    0.0011
    --------------------------------------------
      LOOP:  cpu time   29.3367: real time   29.6144

 eigenvalue-minimisations  :   336
 total energy-change (2. order) : 0.2564736E+04  (-0.1079821E+05)
 number of electron     216.0000000 magnetization 
 augmentation part      216.0000000 magnetization 

 Free energy of the ion-electron system (eV)
  ---------------------------------------------------
  alpha Z        PSCENC =        47.94900195
  Ewald energy   TEWEN  =     48385.02047969
  -Hartree energ DENC   =    -54452.06656991
  -exchange      EXHF   =         0.00000000
  -V(xc)+E(xc)   XCENC  =       605.67635524
  PAW double counting   =      6340.10990386    -6200.63067283
  entropy T*S    EENTRO =        -0.00000000
  eigenvalues    EBANDS =      -530.84630155
  atomic energy  EATOM  =      8369.52358910
  ---------------------------------------------------
  free energy    TOTEN  =      2564.73578555 eV

  energy without entropy =     2564.73578555  energy(sigma->0) =     2564.73578555


--------------------------------------------------------------------------------------------------------




--------------------------------------- Iteration      1(   2)  ---------------------------------------


    TRIAL :  cpu time   38.9281: real time   39.2304
    CORREC:  cpu time    0.0001: real time    0.0001
    --------------------------------------------
      LOOP:  cpu time   38.9880: real time   39.2937

 eigenvalue-minimisations  :   560
 total energy-change (2. order) :-0.2493345E+04  (-0.2329377E+04)
 number of electron     216.0000000 magnetization 
 augmentation part      216.0000000 magnetization 

 Free energy of the ion-electron system (eV)
  ---------------------------------------------------
  alpha Z        PSCENC =        47.94900195
  Ewald energy   TEWEN  =     48385.02047969
  -Hartree energ DENC   =    -54452.06656991
  -exchange      EXHF   =         0.00000000
  -V(xc)+E(xc)   XCENC  =       605.67635524
  PAW double counting   =      6340.10990386    -6200.63067283
  entropy T*S    EENTRO =        -0.00000000
  eigenvalues    EBANDS =     -3024.19107561
  atomic energy  EATOM  =      8369.52358910
  ---------------------------------------------------
  free energy    TOTEN  =        71.39101149 eV

  energy without entropy =       71.39101149  energy(sigma->0) =       71.39101149


--------------------------------------------------------------------------------------------------------




--------------------------------------- Iteration      1(   3)  ---------------------------------------


    TRIAL :  cpu time   30.2297: real time   30.4734
    CORREC:  cpu time    0.0001: real time    0.0001
    --------------------------------------------
      LOOP:  cpu time   30.2511: real time   30.5212

 eigenvalue-minimisations  :   392
 total energy-change (2. order) :-0.6433073E+03  (-0.6398212E+03)
 number of electron     216.0000000 magnetization 
 augmentation part      216.0000000 magnetization 

 Free energy of the ion-electron system (eV)
  ---------------------------------------------------
  alpha Z        PSCENC =        47.94900195
  Ewald energy   TEWEN  =     48385.02047969
  -Hartree energ DENC   =    -54452.06656991
  -exchange      EXHF   =         0.00000000
  -V(xc)+E(xc)   XCENC  =       605.67635524
  PAW double counting   =      6340.10990386    -6200.63067283
  entropy T*S    EENTRO =        -0.00000000
  eigenvalues    EBANDS =     -3667.49834978
  atomic energy  EATOM  =      8369.52358910
  ---------------------------------------------------
  free energy    TOTEN  =      -571.91626268 eV

  energy without entropy =     -571.91626268  energy(sigma->0) =     -571.91626268


--------------------------------------------------------------------------------------------------------




--------------------------------------- Iteration      1(   4)  ---------------------------------------


    TRIAL :  cpu time   33.1388: real time   33.4095
    CORREC:  cpu time    0.0001: real time    0.0001
    --------------------------------------------
      LOOP:  cpu time   33.1587: real time   33.4640

 eigenvalue-minimisations  :   448
 total energy-change (2. order) :-0.3424847E+02  (-0.3398939E+02)
 number of electron     216.0000000 magnetization 
 augmentation part      216.0000000 magnetization 

 Free energy of the ion-electron system (eV)
  ---------------------------------------------------
  alpha Z        PSCENC =        47.94900195
  Ewald energy   TEWEN  =     48385.02047969
  -Hartree energ DENC   =    -54452.06656991
  -exchange      EXHF   =         0.00000000
  -V(xc)+E(xc)   XCENC  =       605.67635524
  PAW double counting   =      6340.10990386    -6200.63067283
  entropy T*S    EENTRO =        -0.00000000
  eigenvalues    EBANDS =     -3701.74682421
  atomic energy  EATOM  =      8369.52358910
  ---------------------------------------------------
  free energy    TOTEN  =      -606.16473711 eV

  energy without entropy =     -606.16473711  energy(sigma->0) =     -606.16473711


--------------------------------------------------------------------------------------------------------




--------------------------------------- Iteration      1(   5)  ---------------------------------------


    TRIAL :  cpu time   33.1357: real time   33.3913
    CORREC:  cpu time    0.0001: real time    0.0001
    CHARGE:  cpu time    2.9757: real time    2.9979
    --------------------------------------------
      LOOP:  cpu time   36.1523: real time   36.4318

 eigenvalue-minimisations  :   448
 total energy-change (2. order) :-0.1148739E+01  (-0.1144079E+01)
 number of electron     216.0000000 magnetization 
 augmentation part       -0.4526555 magnetization 

 Free energy of the ion-electron system (eV)
  ---------------------------------------------------
  alpha Z        PSCENC =        47.94900195
  Ewald energy   TEWEN  =     48385.02047969
  -Hartree energ DENC   =    -54452.06656991
  -exchange      EXHF   =         0.00000000
  -V(xc)+E(xc)   XCENC  =       605.67635524
  PAW double counting   =      6340.10990386    -6200.63067283
  entropy T*S    EENTRO =        -0.00000000
  eigenvalues    EBANDS =     -3702.89556321
  atomic energy  EATOM  =      8369.52358910
  ---------------------------------------------------
  free energy    TOTEN  =      -607.31347611 eV

  energy without entropy =     -607.31347611  energy(sigma->0) =     -607.31347611


--------------------------------------------------------------------------------------------------------




--------------------------------------- Iteration      1(   6)  ---------------------------------------


    POTLOK:  cpu time    1.6708: real time    1.6802
    SETDIJ:  cpu time    0.2283: real time    0.2291
    TRIAL :  cpu time   19.6705: real time   19.8230
    CORREC:  cpu time    8.8624: real time    8.9289
    CHARGE:  cpu time    2.9658: real time    2.9896
    --------------------------------------------
      LOOP:  cpu time   33.4642: real time   33.7215

 eigenvalue-minimisations  :     0
 total energy-change (2. order) : 0.9752455E+02  (-0.1118377E+02)
 number of electron     216.0000000 magnetization 
 augmentation part       -0.5098116 magnetization 

 Free energy of the ion-electron system (eV)
  ---------------------------------------------------
  alpha Z        PSCENC =        47.94900195
  Ewald energy   TEWEN  =     48385.02047969
  -Hartree energ DENC   =    -55797.85904438
  -exchange      EXHF   =         0.00000000
  -V(xc)+E(xc)   XCENC  =       676.67431545
  PAW double counting   =    119831.22988373  -119691.61237462
  entropy T*S    EENTRO =        -0.00000000
  eigenvalues    EBANDS =     -2330.71477937
  atomic energy  EATOM  =      8369.52358910
  ---------------------------------------------------
  free energy    TOTEN  =      -509.78892845 eV

  energy without entropy =     -509.78892845  energy(sigma->0) =     -509.78892845


--------------------------------------------------------------------------------------------------------




--------------------------------------- Iteration      1(   7)  ---------------------------------------


    POTLOK:  cpu time    1.6672: real time    1.6778
    SETDIJ:  cpu time    0.2262: real time    0.2270
    TRIAL :  cpu time   19.6281: real time   19.8047
    CORREC:  cpu time    8.8448: real time    8.9252
    CHARGE:  cpu time    2.9605: real time    2.9877
    --------------------------------------------
      LOOP:  cpu time   33.3558: real time   33.6616

 eigenvalue-minimisations  :     0
 total energy-change (2. order) :-0.1119158E+02  (-0.1393709E+01)
 number of electron     216.0000000 magnetization 
 augmentation part       -0.5408164 magnetization 

 Free energy of the ion-electron system (eV)
  ---------------------------------------------------
  alpha Z        PSCENC =        47.94900195
  Ewald energy   TEWEN  =     48385.02047969
  -Hartree energ DENC   =    -55379.71184467
  -exchange      EXHF   =         0.00000000
  -V(xc)+E(xc)   XCENC  =       659.23597375
  PAW double counting   =    139398.20505650  -139256.87597689
  entropy T*S    EENTRO =        -0.00000000
  eigenvalues    EBANDS =     -2744.32679119
  atomic energy  EATOM  =      8369.52358910
  ---------------------------------------------------
  free energy    TOTEN  =      -520.98051176 eV

  energy without entropy =     -520.98051176  energy(sigma->0) =     -520.98051176


--------------------------------------------------------------------------------------------------------




--------------------------------------- Iteration      1(   8)  ---------------------------------------


    POTLOK:  cpu time    1.6663: real time    1.6790
    SETDIJ:  cpu time    0.2258: real time    0.2267
    TRIAL :  cpu time   19.6532: real time   19.8163
    CORREC:  cpu time    8.8684: real time    8.9316
    CHARGE:  cpu time    2.9755: real time    2.9964
    --------------------------------------------
      LOOP:  cpu time   33.4334: real time   33.6946

 eigenvalue-minimisations  :     0
 total energy-change (2. order) :-0.1394372E+01  (-0.4424178E+00)
 number of electron     216.0000000 magnetization 
 augmentation part       -0.5416871 magnetization 

 Free energy of the ion-electron system (eV)
  ---------------------------------------------------
  alpha Z        PSCENC =        47.94900195
  Ewald energy   TEWEN  =     48385.02047969
  -Hartree energ DENC   =    -55358.83276877
  -exchange      EXHF   =         0.00000000
  -V(xc)+E(xc)   XCENC  =       658.30649349
  PAW double counting   =    149119.85329555  -148978.40178654
  entropy T*S    EENTRO =        -0.00000000
  eigenvalues    EBANDS =     -2765.79318833
  atomic energy  EATOM  =      8369.52358910
  ---------------------------------------------------
  free energy    TOTEN  =      -522.37488386 eV

  energy without entropy =     -522.37488386  energy(sigma->0) =     -522.37488386


--------------------------------------------------------------------------------------------------------




--------------------------------------- Iteration      1(   9)  ---------------------------------------


    POTLOK:  cpu time    1.6682: real time    1.6778
    SETDIJ:  cpu time    0.2224: real time    0.2232
    TRIAL :  cpu time   19.6763: real time   19.8162
    CORREC:  cpu time    8.8616: real time    8.9209
    CHARGE:  cpu time    2.9579: real time    2.9785
    --------------------------------------------
      LOOP:  cpu time   33.4344: real time   33.6925

 eigenvalue-minimisations  :     0
 total energy-change (2. order) :-0.4420282E+00  (-0.1733612E+00)
 number of electron     216.0000000 magnetization 
 augmentation part       -0.5382064 magnetization 

 Free energy of the ion-electron system (eV)
  ---------------------------------------------------
  alpha Z        PSCENC =        47.94900195
  Ewald energy   TEWEN  =     48385.02047969
  -Hartree energ DENC   =    -55364.73467623
  -exchange      EXHF   =         0.00000000
  -V(xc)+E(xc)   XCENC  =       658.26864784
  PAW double counting   =    156757.63553435  -156616.11586170
  entropy T*S    EENTRO =        -0.00000000
  eigenvalues    EBANDS =     -2760.36362702
  atomic energy  EATOM  =      8369.52358910
  ---------------------------------------------------
  free energy    TOTEN  =      -522.81691202 eV

  energy without entropy =     -522.81691202  energy(sigma->0) =     -522.81691202


--------------------------------------------------------------------------------------------------------




--------------------------------------- Iteration      1(  10)  ---------------------------------------


    POTLOK:  cpu time    1.6699: real time    1.6794
    SETDIJ:  cpu time    0.2256: real time    0.2264
    TRIAL :  cpu time   19.6540: real time   19.8172
    CORREC:  cpu time    8.8592: real time    8.9187
    CHARGE:  cpu time    2.9632: real time    2.9903
    --------------------------------------------
      LOOP:  cpu time   33.4061: real time   33.6714

 eigenvalue-minimisations  :     0
 total energy-change (2. order) :-0.1732126E+00  (-0.7521535E-01)
 number of electron     216.0000000 magnetization 
 augmentation part       -0.5336420 magnetization 

 Free energy of the ion-electron system (eV)
  ---------------------------------------------------
  alpha Z        PSCENC =        47.94900195
  Ewald energy   TEWEN  =     48385.02047969
  -Hartree energ DENC   =    -55362.54543787
  -exchange      EXHF   =         0.00000000
  -V(xc)+E(xc)   XCENC  =       658.18526183
  PAW double counting   =    160365.16568517  -160223.60546854
  entropy T*S    EENTRO =        -0.00000000
  eigenvalues    EBANDS =     -2762.68323598
  atomic energy  EATOM  =      8369.52358910
  ---------------------------------------------------
  free energy    TOTEN  =      -522.99012466 eV

  energy without entropy =     -522.99012466  energy(sigma->0) =     -522.99012466


--------------------------------------------------------------------------------------------------------




--------------------------------------- Iteration      1(  11)  ---------------------------------------


    POTLOK:  cpu time    1.6687: real time    1.6795
    SETDIJ:  cpu time    0.2207: real time    0.2217
    TRIAL :  cpu time   19.6648: real time   19.8230
    CORREC:  cpu time    8.8633: real time    8.9304
    CHARGE:  cpu time    2.9451: real time    2.9722
    --------------------------------------------
      LOOP:  cpu time   33.3924: real time   33.6606

 eigenvalue-minimisations  :     0
 total energy-change (2. order) :-0.7510991E-01  (-0.2929312E-01)
 number of electron     216.0000000 magnetization 
 augmentation part       -0.5306528 magnetization 

 Free energy of the ion-electron system (eV)
  ---------------------------------------------------
  alpha Z        PSCENC =        47.94900195
  Ewald energy   TEWEN  =     48385.02047969
  -Hartree energ DENC   =    -55356.77189148
  -exchange      EXHF   =         0.00000000
  -V(xc)+E(xc)   XCENC  =       658.12666090
  PAW double counting   =    160964.35565202  -160822.81327333
  entropy T*S    EENTRO =        -0.00000000
  eigenvalues    EBANDS =     -2768.45545341
  atomic energy  EATOM  =      8369.52358910
  ---------------------------------------------------
  free energy    TOTEN  =      -523.06523457 eV

  energy without entropy =     -523.06523457  energy(sigma->0) =     -523.06523457


--------------------------------------------------------------------------------------------------------




--------------------------------------- Iteration      1(  12)  ---------------------------------------


    POTLOK:  cpu time    1.6694: real time    1.6791
    SETDIJ:  cpu time    0.2336: real time    0.2344
    TRIAL :  cpu time   19.6753: real time   19.8141
    CORREC:  cpu time    8.8657: real time    8.9279
    CHARGE:  cpu time    2.9694: real time    2.9901
    --------------------------------------------
      LOOP:  cpu time   33.4359: real time   33.7032

 eigenvalue-minimisations  :     0
 total energy-change (2. order) :-0.2924733E-01  (-0.9150386E-02)
 number of electron     216.0000000 magnetization 
 augmentation part       -0.5304691 magnetization 

 Free energy of the ion-electron system (eV)
  ---------------------------------------------------
  alpha Z        PSCENC =        47.94900195
  Ewald energy   TEWEN  =     48385.02047969
  -Hartree energ DENC   =    -55352.52094775
  -exchange      EXHF   =         0.00000000
  -V(xc)+E(xc)   XCENC  =       658.06660185
  PAW double counting   =    160372.29117503  -160230.77309083
  entropy T*S    EENTRO =        -0.00000000
  eigenvalues    EBANDS =     -2772.65129094
  atomic energy  EATOM  =      8369.52358910
  ---------------------------------------------------
  free energy    TOTEN  =      -523.09448190 eV

  energy without entropy =     -523.09448190  energy(sigma->0) =     -523.09448190


--------------------------------------------------------------------------------------------------------




--------------------------------------- Iteration      1(  13)  ---------------------------------------


    POTLOK:  cpu time    1.6685: real time    1.6783
    SETDIJ:  cpu time    0.2246: real time    0.2255
    TRIAL :  cpu time   19.6546: real time   19.8448
    CORREC:  cpu time    8.8611: real time    8.9263
    CHARGE:  cpu time    2.9616: real time    2.9827
    --------------------------------------------
      LOOP:  cpu time   33.4156: real time   33.7044

 eigenvalue-minimisations  :     0
 total energy-change (2. order) :-0.9132773E-02  (-0.2527192E-02)
 number of electron     216.0000000 magnetization 
 augmentation part       -0.5309403 magnetization 

 Free energy of the ion-electron system (eV)
  ---------------------------------------------------
  alpha Z        PSCENC =        47.94900195
  Ewald energy   TEWEN  =     48385.02047969
  -Hartree energ DENC   =    -55351.14832141
  -exchange      EXHF   =         0.00000000
  -V(xc)+E(xc)   XCENC  =       658.01987020
  PAW double counting   =    159710.88282795  -159569.36886913
  entropy T*S    EENTRO =        -0.00000000
  eigenvalues    EBANDS =     -2773.98219303
  atomic energy  EATOM  =      8369.52358910
  ---------------------------------------------------
  free energy    TOTEN  =      -523.10361467 eV

  energy without entropy =     -523.10361467  energy(sigma->0) =     -523.10361467


--------------------------------------------------------------------------------------------------------




--------------------------------------- Iteration      1(  14)  ---------------------------------------


    POTLOK:  cpu time    1.6703: real time    1.6798
    SETDIJ:  cpu time    0.2262: real time    0.2270
    TRIAL :  cpu time   19.6631: real time   19.8087
    CORREC:  cpu time    8.8574: real time    8.9176
    CHARGE:  cpu time    2.9631: real time    2.9854
    --------------------------------------------
      LOOP:  cpu time   33.4686: real time   33.7094

 eigenvalue-minimisations  :     0
 total energy-change (2. order) :-0.2517499E-02  (-0.6831246E-03)
 number of electron     216.0000000 magnetization 
 augmentation part       -0.5312066 magnetization 

 Free energy of the ion-electron system (eV)
  ---------------------------------------------------
  alpha Z        PSCENC =        47.94900195
  Ewald energy   TEWEN  =     48385.02047969
  -Hartree energ DENC   =    -55351.21238457
  -exchange      EXHF   =         0.00000000
  -V(xc)+E(xc)   XCENC  =       658.00840972
  PAW double counting   =    159329.57476512  -159188.05970832
  entropy T*S    EENTRO =        -0.00000000
  eigenvalues    EBANDS =     -2773.91028486
  atomic energy  EATOM  =      8369.52358910
  ---------------------------------------------------
  free energy    TOTEN  =      -523.10613217 eV

  energy without entropy =     -523.10613217  energy(sigma->0) =     -523.10613217


--------------------------------------------------------------------------------------------------------




--------------------------------------- Iteration      1(  15)  ---------------------------------------


    POTLOK:  cpu time    1.6671: real time    1.6770
    SETDIJ:  cpu time    0.2218: real time    0.2226
    TRIAL :  cpu time   19.6616: real time   19.8250
    CORREC:  cpu time    8.8723: real time    8.9340
    CHARGE:  cpu time    2.9631: real time    2.9867
    --------------------------------------------
      LOOP:  cpu time   33.4511: real time   33.7239

 eigenvalue-minimisations  :     0
 total energy-change (2. order) :-0.6789013E-03  (-0.1911214E-03)
 number of electron     216.0000000 magnetization 
 augmentation part       -0.5313728 magnetization 

 Free energy of the ion-electron system (eV)
  ---------------------------------------------------
  alpha Z        PSCENC =        47.94900195
  Ewald energy   TEWEN  =     48385.02047969
  -Hartree energ DENC   =    -55351.16066746
  -exchange      EXHF   =         0.00000000
  -V(xc)+E(xc)   XCENC  =       658.00345698
  PAW double counting   =    159142.49677514  -159000.98072128
  entropy T*S    EENTRO =        -0.00000000
  eigenvalues    EBANDS =     -2773.95872519
  atomic energy  EATOM  =      8369.52358910
  ---------------------------------------------------
  free energy    TOTEN  =      -523.10681107 eV

  energy without entropy =     -523.10681107  energy(sigma->0) =     -523.10681107


--------------------------------------------------------------------------------------------------------




--------------------------------------- Iteration      1(  16)  ---------------------------------------


    POTLOK:  cpu time    1.6654: real time    1.6752
    SETDIJ:  cpu time    0.2295: real time    0.2305
    TRIAL :  cpu time   19.6479: real time   19.8107
    CORREC:  cpu time    8.8538: real time    8.9277
    CHARGE:  cpu time    2.9599: real time    2.9841
    --------------------------------------------
      LOOP:  cpu time   33.4196: real time   33.6919

 eigenvalue-minimisations  :     0
 total energy-change (2. order) :-0.1893588E-03  (-0.6115926E-04)
 number of electron     216.0000000 magnetization 
 augmentation part       -0.5314359 magnetization 

 Free energy of the ion-electron system (eV)
  ---------------------------------------------------
  alpha Z        PSCENC =        47.94900195
  Ewald energy   TEWEN  =     48385.02047969
  -Hartree energ DENC   =    -55351.06707860
  -exchange      EXHF   =         0.00000000
  -V(xc)+E(xc)   XCENC  =       657.99838891
  PAW double counting   =    159037.93150265  -158896.41395141
  entropy T*S    EENTRO =        -0.00000000
  eigenvalues    EBANDS =     -2774.04893273
  atomic energy  EATOM  =      8369.52358910
  ---------------------------------------------------
  free energy    TOTEN  =      -523.10700043 eV

  energy without entropy =     -523.10700043  energy(sigma->0) =     -523.10700043


--------------------------------------------------------------------------------------------------------




--------------------------------------- Iteration      1(  17)  ---------------------------------------


    POTLOK:  cpu time    1.6661: real time    1.6754
    SETDIJ:  cpu time    0.2269: real time    0.2277
    TRIAL :  cpu time   19.6350: real time   19.7977
    CORREC:  cpu time    8.8550: real time    8.9186
    CHARGE:  cpu time    2.9710: real time    2.9914
    --------------------------------------------
      LOOP:  cpu time   33.3839: real time   33.6435

 eigenvalue-minimisations  :     0
 total energy-change (2. order) :-0.6007391E-04  (-0.2190878E-04)
 number of electron     216.0000000 magnetization 
 augmentation part       -0.5314602 magnetization 

 Free energy of the ion-electron system (eV)
  ---------------------------------------------------
  alpha Z        PSCENC =        47.94900195
  Ewald energy   TEWEN  =     48385.02047969
  -Hartree energ DENC   =    -55351.22042359
  -exchange      EXHF   =         0.00000000
  -V(xc)+E(xc)   XCENC  =       658.00335314
  PAW double counting   =    158972.09556801  -158830.57776612
  entropy T*S    EENTRO =        -0.00000000
  eigenvalues    EBANDS =     -2773.90086269
  atomic energy  EATOM  =      8369.52358910
  ---------------------------------------------------
  free energy    TOTEN  =      -523.10706051 eV

  energy without entropy =     -523.10706051  energy(sigma->0) =     -523.10706051


--------------------------------------------------------------------------------------------------------




--------------------------------------- Iteration      1(  18)  ---------------------------------------


    POTLOK:  cpu time    1.6687: real time    1.6784
    SETDIJ:  cpu time    0.2232: real time    0.2240
    TRIAL :  cpu time   19.6931: real time   19.8316
    CORREC:  cpu time    8.8674: real time    8.9259
    CHARGE:  cpu time    2.9714: real time    2.9923
    --------------------------------------------
      LOOP:  cpu time   33.4491: real time   33.6905

 eigenvalue-minimisations  :     0
 total energy-change (2. order) :-0.2192537E-04  (-0.7777144E-05)
 number of electron     216.0000000 magnetization 
 augmentation part       -0.5314756 magnetization 

 Free energy of the ion-electron system (eV)
  ---------------------------------------------------
  alpha Z        PSCENC =        47.94900195
  Ewald energy   TEWEN  =     48385.02047969
  -Hartree energ DENC   =    -55351.29341764
  -exchange      EXHF   =         0.00000000
  -V(xc)+E(xc)   XCENC  =       658.00541869
  PAW double counting   =    158944.70007088  -158803.18202228
  entropy T*S    EENTRO =        -0.00000000
  eigenvalues    EBANDS =     -2773.83020283
  atomic energy  EATOM  =      8369.52358910
  ---------------------------------------------------
  free energy    TOTEN  =      -523.10708243 eV

  energy without entropy =     -523.10708243  energy(sigma->0) =     -523.10708243


--------------------------------------------------------------------------------------------------------




--------------------------------------- Iteration      1(  19)  ---------------------------------------


    POTLOK:  cpu time    1.6677: real time    1.6770
    SETDIJ:  cpu time    0.2237: real time    0.2244
    TRIAL :  cpu time   19.6561: real time   19.8021
    CORREC:  cpu time    8.8663: real time    8.9286
    CHARGE:  cpu time    2.9600: real time    2.9801
    --------------------------------------------
      LOOP:  cpu time   33.4041: real time   33.6549

 eigenvalue-minimisations  :     0
 total energy-change (2. order) :-0.8004601E-05  (-0.2632226E-05)
 number of electron     216.0000000 magnetization 
 augmentation part       -0.5314775 magnetization 

 Free energy of the ion-electron system (eV)
  ---------------------------------------------------
  alpha Z        PSCENC =        47.94900195
  Ewald energy   TEWEN  =     48385.02047969
  -Hartree energ DENC   =    -55351.29501954
  -exchange      EXHF   =         0.00000000
  -V(xc)+E(xc)   XCENC  =       658.00519652
  PAW double counting   =    158944.23136567  -158802.71308598
  entropy T*S    EENTRO =        -0.00000000
  eigenvalues    EBANDS =     -2773.82861786
  atomic energy  EATOM  =      8369.52358910
  ---------------------------------------------------
  free energy    TOTEN  =      -523.10709044 eV

  energy without entropy =     -523.10709044  energy(sigma->0) =     -523.10709044


--------------------------------------------------------------------------------------------------------




--------------------------------------- Iteration      1(  20)  ---------------------------------------


    POTLOK:  cpu time    1.6680: real time    1.6774
    SETDIJ:  cpu time    0.2289: real time    0.2297
    TRIAL :  cpu time   19.6606: real time   19.8024
    CORREC:  cpu time    8.8604: real time    8.9250
    CHARGE:  cpu time    2.9655: real time    2.9868
    --------------------------------------------
      LOOP:  cpu time   33.4294: real time   33.6680

 eigenvalue-minimisations  :     0
 total energy-change (2. order) :-0.2700195E-05  (-0.8908167E-06)
 number of electron     216.0000000 magnetization 
 augmentation part       -0.5314759 magnetization 

 Free energy of the ion-electron system (eV)
  ---------------------------------------------------
  alpha Z        PSCENC =        47.94900195
  Ewald energy   TEWEN  =     48385.02047969
  -Hartree energ DENC   =    -55351.31201847
  -exchange      EXHF   =         0.00000000
  -V(xc)+E(xc)   XCENC  =       658.00579075
  PAW double counting   =    158951.98081201  -158810.46255186
  entropy T*S    EENTRO =        -0.00000000
  eigenvalues    EBANDS =     -2773.81219631
  atomic energy  EATOM  =      8369.52358910
  ---------------------------------------------------
  free energy    TOTEN  =      -523.10709314 eV

  energy without entropy =     -523.10709314  energy(sigma->0) =     -523.10709314


--------------------------------------------------------------------------------------------------------




--------------------------------------- Iteration      1(  21)  ---------------------------------------


    POTLOK:  cpu time    1.6671: real time    1.6765
    SETDIJ:  cpu time    0.2256: real time    0.2264
    TRIAL :  cpu time   19.6724: real time   19.8176
    CORREC:  cpu time    8.8617: real time    8.9248
    CHARGE:  cpu time    2.9646: real time    2.9855
    --------------------------------------------
      LOOP:  cpu time   33.4528: real time   33.7067

 eigenvalue-minimisations  :     0
 total energy-change (2. order) :-0.8861825E-06  (-0.3358326E-06)
 number of electron     216.0000000 magnetization 
 augmentation part       -0.5314704 magnetization 

 Free energy of the ion-electron system (eV)
  ---------------------------------------------------
  alpha Z        PSCENC =        47.94900195
  Ewald energy   TEWEN  =     48385.02047969
  -Hartree energ DENC   =    -55351.31884540
  -exchange      EXHF   =         0.00000000
  -V(xc)+E(xc)   XCENC  =       658.00593537
  PAW double counting   =    158959.01119276  -158817.49295730
  entropy T*S    EENTRO =        -0.00000000
  eigenvalues    EBANDS =     -2773.80549020
  atomic energy  EATOM  =      8369.52358910
  ---------------------------------------------------
  free energy    TOTEN  =      -523.10709402 eV

  energy without entropy =     -523.10709402  energy(sigma->0) =     -523.10709402


--------------------------------------------------------------------------------------------------------




--------------------------------------- Iteration      1(  22)  ---------------------------------------


    POTLOK:  cpu time    1.6668: real time    1.6770
    SETDIJ:  cpu time    0.2269: real time    0.2277
    TRIAL :  cpu time   19.6465: real time   19.8065
    CORREC:  cpu time    8.8788: real time    8.9407
    CHARGE:  cpu time    2.9694: real time    2.9901
    --------------------------------------------
      LOOP:  cpu time   33.4451: real time   33.7011

 eigenvalue-minimisations  :     0
 total energy-change (2. order) :-0.3067835E-06  (-0.1919439E-06)
 number of electron     216.0000000 magnetization 
 augmentation part       -0.5314627 magnetization 

 Free energy of the ion-electron system (eV)
  ---------------------------------------------------
  alpha Z        PSCENC =        47.94900195
  Ewald energy   TEWEN  =     48385.02047969
  -Hartree energ DENC   =    -55351.31673566
  -exchange      EXHF   =         0.00000000
  -V(xc)+E(xc)   XCENC  =       658.00583552
  PAW double counting   =    158963.57300124  -158822.05480704
  entropy T*S    EENTRO =        -0.00000000
  eigenvalues    EBANDS =     -2773.80745913
  atomic energy  EATOM  =      8369.52358910
  ---------------------------------------------------
  free energy    TOTEN  =      -523.10709433 eV

  energy without entropy =     -523.10709433  energy(sigma->0) =     -523.10709433


--------------------------------------------------------------------------------------------------------




--------------------------------------- Iteration      1(  23)  ---------------------------------------


    POTLOK:  cpu time    1.6685: real time    1.6780
    SETDIJ:  cpu time    0.2254: real time    0.2262
    TRIAL :  cpu time   19.6722: real time   19.8168
    CORREC:  cpu time    8.8565: real time    8.9152
    CHARGE:  cpu time    2.9690: real time    2.9910
    --------------------------------------------
      LOOP:  cpu time   33.4187: real time   33.6623

 eigenvalue-minimisations  :     0
 total energy-change (2. order) :-0.1130102E-06  (-0.1576123E-06)
 number of electron     216.0000000 magnetization 
 augmentation part       -0.5314610 magnetization 

 Free energy of the ion-electron system (eV)
  ---------------------------------------------------
  alpha Z        PSCENC =        47.94900195
  Ewald energy   TEWEN  =     48385.02047969
  -Hartree energ DENC   =    -55351.31473864
  -exchange      EXHF   =         0.00000000
  -V(xc)+E(xc)   XCENC  =       658.00583084
  PAW double counting   =    158966.88771719  -158825.36959064
  entropy T*S    EENTRO =        -0.00000000
  eigenvalues    EBANDS =     -2773.80938393
  atomic energy  EATOM  =      8369.52358910
  ---------------------------------------------------
  free energy    TOTEN  =      -523.10709444 eV

  energy without entropy =     -523.10709444  energy(sigma->0) =     -523.10709444


--------------------------------------------------------------------------------------------------------




--------------------------------------- Iteration      1(  24)  ---------------------------------------


    POTLOK:  cpu time    1.6687: real time    1.6780
    SETDIJ:  cpu time    0.2234: real time    0.2242
    TRIAL :  cpu time   19.6741: real time   19.8209
    CORREC:  cpu time    8.8594: real time    8.9182
    CHARGE:  cpu time    2.9762: real time    2.9977
    --------------------------------------------
      LOOP:  cpu time   33.4481: real time   33.6859

 eigenvalue-minimisations  :     0
 total energy-change (2. order) : 0.1485168E-06  (-0.1938713E-06)
 number of electron     216.0000000 magnetization 
 augmentation part       -0.5314613 magnetization 

 Free energy of the ion-electron system (eV)
  ---------------------------------------------------
  alpha Z        PSCENC =        47.94900195
  Ewald energy   TEWEN  =     48385.02047969
  -Hartree energ DENC   =    -55351.30793042
  -exchange      EXHF   =         0.00000000
  -V(xc)+E(xc)   XCENC  =       658.00563164
  PAW double counting   =    158970.59857268  -158829.08046672
  entropy T*S    EENTRO =        -0.00000000
  eigenvalues    EBANDS =     -2773.81597221
  atomic energy  EATOM  =      8369.52358910
  ---------------------------------------------------
  free energy    TOTEN  =      -523.10709429 eV

  energy without entropy =     -523.10709429  energy(sigma->0) =     -523.10709429


--------------------------------------------------------------------------------------------------------




--------------------------------------- Iteration      1(  25)  ---------------------------------------


    POTLOK:  cpu time    1.6690: real time    1.6797
    SETDIJ:  cpu time    0.2228: real time    0.2236
    TRIAL :  cpu time   19.6740: real time   19.8237
    CORREC:  cpu time    8.7463: real time    8.8074
    CHARGE:  cpu time    2.9607: real time    2.9818
    --------------------------------------------
      LOOP:  cpu time   33.2934: real time   33.5463

 eigenvalue-minimisations  :     0
 total energy-change (2. order) :-0.1373701E-06  ( 0.2267249E-06)
 number of electron     216.0000000 magnetization 
 augmentation part       -0.5314658 magnetization 

 Free energy of the ion-electron system (eV)
  ---------------------------------------------------
  alpha Z        PSCENC =        47.94900195
  Ewald energy   TEWEN  =     48385.02047969
  -Hartree energ DENC   =    -55351.31279154
  -exchange      EXHF   =         0.00000000
  -V(xc)+E(xc)   XCENC  =       658.00586436
  PAW double counting   =    158969.67496451  -158828.15688047
  entropy T*S    EENTRO =        -0.00000000
  eigenvalues    EBANDS =     -2773.81132203
  atomic energy  EATOM  =      8369.52358910
  ---------------------------------------------------
  free energy    TOTEN  =      -523.10709443 eV

  energy without entropy =     -523.10709443  energy(sigma->0) =     -523.10709443


--------------------------------------------------------------------------------------------------------




--------------------------------------- Iteration      1(  26)  ---------------------------------------


    POTLOK:  cpu time    1.6655: real time    1.6753
    SETDIJ:  cpu time    0.2268: real time    0.2276
    TRIAL :  cpu time   19.6557: real time   19.8133
    CORREC:  cpu time    8.7422: real time    8.8046
    EDDIAG:  cpu time    4.0610: real time    4.0942
    CHARGE:  cpu time    2.9689: real time    2.9901
    --------------------------------------------
      LOOP:  cpu time   37.3843: real time   37.6867

 eigenvalue-minimisations  :     0
 total energy-change (2. order) :-0.6423215E-07  ( 0.1775724E-07)
 number of electron     216.0000000 magnetization 
 augmentation part       -0.5314674 magnetization 

 Free energy of the ion-electron system (eV)
  ---------------------------------------------------
  alpha Z        PSCENC =        47.94900195
  Ewald energy   TEWEN  =     48385.02047969
  -Hartree energ DENC   =    -55351.31040094
  -exchange      EXHF   =         0.00000000
  -V(xc)+E(xc)   XCENC  =       658.00572825
  PAW double counting   =    158968.74850166  -158827.23037121
  entropy T*S    EENTRO =        -0.00000000
  eigenvalues    EBANDS =     -2773.81362299
  atomic energy  EATOM  =      8369.52358910
  ---------------------------------------------------
  free energy    TOTEN  =      -523.10709449 eV

  energy without entropy =     -523.10709449  energy(sigma->0) =     -523.10709449


--------------------------------------------------------------------------------------------------------


  average scaling for gradient   0.8200


 average (electrostatic) potential at core
  the test charge radii are     0.5770  0.5955
  (the norm of the test charge is              1.0000)
       1 -87.9925       2 -87.9843       3 -88.0013       4 -88.0066       5 -87.9811
       6 -87.9759       7 -87.9861       8 -87.9553       9 -87.9756      10 -87.9696
      11 -87.9811      12 -87.9888      13 -87.9680      14 -87.9716      15 -87.9795
      16 -87.9765      17 -87.9842      18 -87.9852      19 -87.9905      20 -87.9848
      21 -87.9661      22 -87.9725      23 -88.0004      24 -87.9924      25 -87.9801
      26 -87.9826      27 -87.9754      28 -87.9960      29 -87.9750      30 -87.9800
      31 -88.0087      32 -87.9926      33 -87.9921      34 -87.9829      35 -87.9791
      36 -87.9837      37 -87.9853      38 -87.9891      39 -87.9888      40 -87.9850
      41 -87.9868      42 -87.9912      43 -87.9834      44 -87.9917      45 -87.9786
      46 -87.9766      47 -87.9884      48 -87.9837      49 -87.9875      50 -87.9860
      51 -91.7944      52-124.1478      53-124.1582
 
 
 
 E-fermi :  -4.4473     XC(G=0):  -1.8375     alpha+bet : -1.6890

 Fermi energy:        -4.4472839381

 k-point     1 :       0.0000    0.0000    0.0000
  band No.  band energies     occupation 
      1     -29.0933      2.00000
      2     -27.9793      2.00000
      3     -23.6932      2.00000
      4     -22.7183      2.00000
      5     -22.7051      2.00000
      6     -22.6973      2.00000
      7     -22.6959      2.00000
      8     -22.6933      2.00000
      9     -22.6877      2.00000
     10     -20.7669      2.00000
     11     -20.7602      2.00000
     12     -20.7509      2.00000
     13     -20.7495      2.00000
     14     -20.7473      2.00000
     15     -20.7468      2.00000
     16     -19.8206      2.00000
     17     -19.8148      2.00000
     18     -19.8103      2.00000
     19     -19.8080      2.00000
     20     -19.8060      2.00000
     21     -19.8051      2.00000
     22     -17.5800      2.00000
     23     -17.5764      2.00000
     24     -17.5703      2.00000
     25     -17.5685      2.00000
     26     -17.5637      2.00000
     27     -17.5626      2.00000
     28     -16.4101      2.00000
     29     -16.4069      2.00000
     30     -16.4006      2.00000
     31     -16.4003      2.00000
     32     -16.3974      2.00000
     33     -16.3965      2.00000
     34     -15.0009      2.00000
     35     -14.9980      2.00000
     36     -14.9961      2.00000
     37     -14.9936      2.00000
     38     -14.9925      2.00000
     39     -14.9920      2.00000
     40     -13.2024      2.00000
     41     -12.5098      2.00000
     42     -12.5079      2.00000
     43     -12.5012      2.00000
     44     -12.5002      2.00000
     45     -12.4997      2.00000
     46     -12.4971      2.00000
     47     -12.3049      2.00000
     48     -12.2992      2.00000
     49     -12.2966      2.00000
     50     -12.2956      2.00000
     51     -12.2904      2.00000
     52     -12.2899      2.00000
     53     -11.9159      2.00000
     54     -11.8583      2.00000
     55     -11.6555      2.00000
     56     -10.8960      2.00000
     57     -10.8336      2.00000
     58     -10.8329      2.00000
     59     -10.8312      2.00000
     60     -10.8305      2.00000
     61     -10.8299      2.00000
     62     -10.8281      2.00000
     63      -9.8091      2.00000
     64      -9.8046      2.00000
     65      -9.8031      2.00000
     66      -9.8014      2.00000
     67      -9.7988      2.00000
     68      -9.6157      2.00000
     69      -9.5090      2.00000
     70      -9.5036      2.00000
     71      -9.5009      2.00000
     72      -9.4995      2.00000
     73      -9.4983      2.00000
     74      -9.4962      2.00000
     75      -9.4957      2.00000
     76      -9.4942      2.00000
     77      -9.4915      2.00000
     78      -9.4910      2.00000
     79      -9.4898      2.00000
     80      -9.4885      2.00000
     81      -8.1957      2.00000
     82      -8.0407      2.00000
     83      -7.7590      2.00000
     84      -7.7564      2.00000
     85      -7.7557      2.00000
     86      -7.7511      2.00000
     87      -7.7501      2.00000
     88      -7.7493      2.00000
     89      -7.5681      2.00000
     90      -7.5550      2.00000
     91      -7.5518      2.00000
     92      -7.5303      2.00000
     93      -7.5203      2.00000
     94      -7.3671      2.00000
     95      -6.6227      2.00000
     96      -6.6194      2.00000
     97      -6.6100      2.00000
     98      -6.6025      2.00000
     99      -6.5895      2.00000
    100      -6.5040      2.00000
    101      -6.1838      2.00000
    102      -6.1811      2.00000
    103      -4.5325      2.00000
    104      -4.5243      2.00000
    105      -4.5136      2.00000
    106      -4.5093      2.00000
    107      -4.5078      2.00000
    108      -4.5011      2.00000
    109      -1.5591      0.00000
    110      -1.5486      0.00000
    111      -1.5241      0.00000
    112      -1.5196      0.00000
    113      -1.5168      0.00000
    114      -1.5054      0.00000
    115       0.4034      0.00000
    116       0.4340      0.00000
    117       0.4563      0.00000
    118       0.4682      0.00000
    119       0.4742      0.00000
    120       0.4827      0.00000
    121       0.6686      0.00000
    122       1.2201      0.00000
    123       1.2870      0.00000
    124       1.3285      0.00000
    125       1.5055      0.00000
    126       1.7568      0.00000
    127       2.0223      0.00000
    128       2.0471      0.00000
    129       2.0508      0.00000
    130       2.0586      0.00000
    131       2.1111      0.00000
    132       2.1694      0.00000
    133       2.3122      0.00000
    134       2.3247      0.00000
    135       2.3398      0.00000
    136       2.3411      0.00000
    137       2.3495      0.00000
    138       2.3548      0.00000
    139       2.4023      0.00000
    140       2.5796      0.00000
    141       2.6727      0.00000
    142       2.7316      0.00000
    143       2.7391      0.00000
    144       2.7415      0.00000
    145       2.7675      0.00000
    146       2.8245      0.00000
    147       2.8314      0.00000
    148       2.8375      0.00000
    149       2.8380      0.00000
    150       2.8492      0.00000
    151       2.8934      0.00000
    152       3.4434      0.00000
    153       3.5252      0.00000
    154       3.6162      0.00000
    155       3.7319      0.00000
    156       3.7578      0.00000
    157       4.0545      0.00000
    158       4.2060      0.00000
    159       4.2844      0.00000
    160       4.4445      0.00000
    161       4.5958      0.00000
    162       4.8079      0.00000
    163       4.8448      0.00000
    164       4.8520      0.00000
    165       4.8567      0.00000
    166       4.8627      0.00000
    167       4.8677      0.00000
    168       4.8726      0.00000


--------------------------------------------------------------------------------------------------------


 soft charge-density along one line, spin component           1
         0         1         2         3         4         5         6         7         8         9
 total charge-density along one line
 
 pseudopotential strength for first ion, spin component:           1
 12.639  21.267  -0.000   0.000   0.000  -0.000   0.000   0.000
 21.267  35.785  -0.000   0.000   0.000  -0.000   0.000   0.000
 -0.000  -0.000  -3.235  -0.000   0.000  -5.794  -0.000   0.000
  0.000   0.000  -0.000  -3.235  -0.000  -0.000  -5.794  -0.000
  0.000   0.000   0.000  -0.000  -3.235   0.000  -0.000  -5.794
 -0.000  -0.000  -5.794  -0.000   0.000 -10.355   0.000   0.000
  0.000   0.000  -0.000  -5.794  -0.000   0.000 -10.353  -0.000
  0.000   0.000   0.000  -0.000  -5.794   0.000  -0.000 -10.355
 total augmentation occupancy for first ion, spin component:           1
 10.262  -3.893  -0.001  -0.002   0.001   0.000   0.001  -0.000
 -3.893   1.507   0.000   0.001  -0.000  -0.000  -0.000   0.000
 -0.001   0.000   8.467  -0.009   0.000  -3.024   0.003  -0.000
 -0.002   0.001  -0.009   4.014  -0.000   0.003  -1.207   0.000
  0.001  -0.000   0.000  -0.000   8.467  -0.000   0.000  -3.024
  0.000  -0.000  -3.024   0.003  -0.000   1.092  -0.001   0.000
  0.001  -0.000   0.003  -1.207   0.000  -0.001   0.368   0.000
 -0.000   0.000  -0.000   0.000  -3.024   0.000   0.000   1.092


------------------------ aborting loop because EDIFF is reached ----------------------------------------


    FORLOC:  cpu time    0.1405: real time    0.1415
    FORNL :  cpu time    3.8247: real time    3.8566
    FORCOR:  cpu time    1.6119: real time    1.6214
    OFIELD:  cpu time    0.0029: real time    0.0029

 VOLUME and BASIS-vectors are now :
 -----------------------------------------------------------------------------
  energy-cutoff  :     1000.00
  volume of cell :     3288.85
      direct lattice vectors                 reciprocal lattice vectors
    12.325000000  0.000000000  0.000000000     0.081135903  0.046843835  0.000000000
    -6.162500000 10.673763102  0.000000000     0.000000000  0.093687670  0.000000000
     0.000000000  0.000000000 25.000000000     0.000000000  0.000000000  0.040000000

  length of vectors
    12.325000000 12.325000000 25.000000000     0.093687670  0.093687670  0.040000000


 FORCES acting on ions:
    Electron-Ion                     Ewald-Force                    Non-Local-Force
 -----------------------------------------------------------------------------------------------
   0.139E+02 0.122E+02 0.243E+02   -.139E+02 -.122E+02 -.243E+02   0.139E-01 -.104E-01 0.161E-01
   0.239E+02 0.120E+02 0.335E+02   -.239E+02 -.120E+02 -.335E+02   0.270E-01 -.166E-01 -.582E-02
   0.125E+02 0.313E+02 0.435E+02   -.125E+02 -.314E+02 -.435E+02   -.333E-04 0.674E-01 0.607E-01
   0.219E+02 0.322E+02 0.783E+02   -.220E+02 -.323E+02 -.785E+02   0.109E+00 0.467E-01 0.101E+00
   0.152E+02 0.363E+01 0.244E+02   -.153E+02 -.361E+01 -.244E+02   0.507E-03 -.230E-01 -.517E-02
   0.161E+02 -.264E+01 0.251E+02   -.161E+02 0.266E+01 -.251E+02   -.339E-01 -.834E-02 -.119E-01
   0.358E+02 0.155E+02 0.649E+02   -.359E+02 -.154E+02 -.649E+02   0.612E-01 -.113E+00 -.818E-01
   0.363E+02 -.118E+02 0.712E+02   -.362E+02 0.119E+02 -.711E+02   -.490E-01 -.326E-01 -.331E+00
   -.136E+02 0.297E+02 0.458E+02   0.136E+02 -.297E+02 -.458E+02   -.260E-01 -.804E-02 -.699E-01
   -.273E+02 0.236E+02 0.780E+02   0.274E+02 -.237E+02 -.779E+02   -.661E-01 0.215E-01 -.376E+00
   0.366E+01 -.315E+01 0.190E+02   -.364E+01 0.312E+01 -.190E+02   -.987E-02 0.761E-02 -.654E-02
   0.285E+01 -.229E+01 0.176E+02   -.285E+01 0.229E+01 -.176E+02   -.188E-01 0.787E-02 0.185E-02
   0.133E+02 -.345E+02 0.841E+02   -.134E+02 0.345E+02 -.839E+02   0.135E+00 0.388E-01 -.408E+00
   0.559E+01 -.321E+02 0.446E+02   -.564E+01 0.320E+02 -.445E+02   0.351E-01 -.986E-02 -.542E-01
   -.137E+02 0.865E+01 0.240E+02   0.137E+02 -.863E+01 -.240E+02   0.226E-01 -.127E-01 -.691E-02
   -.209E+02 0.579E+01 0.291E+02   0.209E+02 -.579E+01 -.291E+02   0.479E-02 0.679E-02 -.265E-01
   -.192E+01 -.797E+00 0.168E+02   0.193E+01 0.793E+00 -.168E+02   -.285E-02 -.479E-02 0.170E-02
   0.111E+01 0.720E+01 0.181E+02   -.111E+01 -.720E+01 -.181E+02   -.109E-01 0.488E-02 0.838E-02
   -.440E+01 -.248E+02 0.316E+02   0.438E+01 0.248E+02 -.316E+02   0.429E-01 0.955E-03 0.235E-01
   -.173E+01 -.113E+02 0.203E+02   0.173E+01 0.113E+02 -.203E+02   0.238E-02 -.514E-02 -.174E-02
   0.255E+02 -.110E+02 0.372E+02   -.255E+02 0.110E+02 -.371E+02   -.107E-01 -.555E-02 -.538E-01
   0.144E+02 -.125E+02 0.274E+02   -.144E+02 0.125E+02 -.273E+02   -.203E-01 0.294E-01 -.122E-01
   -.649E+01 0.165E+02 0.110E+03   0.667E+01 -.166E+02 -.110E+03   -.181E+00 0.116E+00 -.223E+00
   -.137E+02 -.264E+02 0.101E+03   0.136E+02 0.265E+02 -.101E+03   0.128E+00 -.124E+00 -.133E+00
   0.631E+01 -.285E+01 0.192E+02   -.628E+01 0.285E+01 -.192E+02   -.185E-01 0.445E-02 -.101E-01
   0.110E+01 0.569E+01 0.194E+02   -.109E+01 -.569E+01 -.194E+02   -.149E-01 0.619E-02 -.212E-02
   -.348E+02 0.357E+01 0.522E+02   0.348E+02 -.364E+01 -.522E+02   0.715E-02 0.394E-01 -.985E-01
   -.307E+02 -.136E+02 0.450E+02   0.307E+02 0.135E+02 -.450E+02   -.518E-01 0.506E-01 0.337E-01
   0.878E+01 -.182E+02 0.289E+02   -.879E+01 0.181E+02 -.289E+02   0.669E-02 0.202E-01 -.180E-01
   0.813E+00 -.636E+01 0.206E+02   -.834E+00 0.634E+01 -.206E+02   0.725E-02 0.156E-01 -.102E-01
   -.260E+02 -.284E+02 0.583E+02   0.261E+02 0.285E+02 -.584E+02   -.805E-01 -.560E-01 0.117E+00
   -.136E+02 -.246E+02 0.343E+02   0.136E+02 0.246E+02 -.343E+02   -.206E-02 -.402E-01 0.315E-01
   0.707E+00 0.296E+01 0.174E+02   -.708E+00 -.296E+01 -.174E+02   0.122E-01 -.111E-01 0.383E-02
   0.208E+01 0.303E+01 0.190E+02   -.208E+01 -.300E+01 -.190E+02   0.118E-02 -.111E-01 -.677E-02
   -.945E+01 0.109E+01 0.212E+02   0.944E+01 -.110E+01 -.212E+02   0.151E-01 0.235E-02 -.392E-02
   -.802E+01 -.317E+01 0.205E+02   0.803E+01 0.316E+01 -.205E+02   -.124E-01 0.110E-01 -.520E-02
   -.167E+02 -.874E+01 0.252E+02   0.167E+02 0.874E+01 -.252E+02   -.206E-01 0.341E-02 -.140E-02
   -.928E+01 -.757E+01 0.201E+02   0.929E+01 0.757E+01 -.201E+02   -.120E-01 0.375E-02 0.103E-01
   -.880E+01 -.116E+02 0.218E+02   0.881E+01 0.116E+02 -.218E+02   -.127E-01 -.127E-01 0.568E-02
   -.128E+01 -.267E+01 0.180E+02   0.127E+01 0.268E+01 -.180E+02   -.420E-03 -.175E-02 0.771E-02
   0.330E+01 0.780E+01 0.190E+02   -.329E+01 -.781E+01 -.190E+02   -.264E-02 0.135E-01 0.730E-02
   0.113E+02 0.177E+02 0.263E+02   -.113E+02 -.177E+02 -.263E+02   0.165E-01 0.207E-01 0.140E-01
   0.886E+00 0.142E+02 0.217E+02   -.876E+00 -.142E+02 -.217E+02   -.808E-02 0.121E-01 -.221E-02
   0.401E+00 0.287E+02 0.361E+02   -.365E+00 -.287E+02 -.361E+02   -.529E-01 0.116E-01 0.266E-01
   -.271E+01 0.543E+01 0.207E+02   0.271E+01 -.542E+01 -.207E+02   0.147E-02 -.993E-02 -.802E-02
   -.118E+02 0.152E+02 0.275E+02   0.118E+02 -.152E+02 -.275E+02   -.272E-02 -.528E-02 -.201E-01
   -.185E+01 -.528E+01 0.188E+02   0.184E+01 0.528E+01 -.188E+02   0.171E-01 0.184E-02 0.895E-03
   -.496E+01 0.205E+01 0.180E+02   0.493E+01 -.205E+01 -.180E+02   0.145E-01 -.266E-02 -.849E-02
   0.360E+00 -.327E+01 0.176E+02   -.353E+00 0.326E+01 -.176E+02   0.808E-02 -.239E-02 0.480E-02
   0.517E+01 0.381E+01 0.179E+02   -.517E+01 -.381E+01 -.179E+02   0.269E-02 0.851E-02 0.379E-02
   0.404E+00 -.218E+00 -.432E+03   -.388E+00 0.201E+00 0.432E+03   -.399E-01 0.173E-01 -.852E-01
   -.229E+03 0.155E+03 -.663E+03   0.279E+03 -.189E+03 0.665E+03   -.519E+02 0.354E+02 -.226E+01
   0.229E+03 -.155E+03 -.639E+03   -.279E+03 0.189E+03 0.636E+03   0.519E+02 -.355E+02 0.430E+01
 -----------------------------------------------------------------------------------------------
   0.723E-01 0.170E-01 -.420E+00   0.171E-12 -.142E-12 0.114E-12   -.725E-01 -.176E-01 0.425E+00
 
 
 POSITION                                       TOTAL-FORCE (eV/Angst)
 -----------------------------------------------------------------------------------
     11.98348      0.00342      0.01417        -0.000281     -0.005215     -0.001497
     -0.34154      1.42665      0.01100         0.015983      0.012150     -0.000304
      2.12355      0.00315      0.01249         0.007541     -0.023875      0.011011
      2.12326      1.42653      0.00641        -0.006841      0.009269     -0.054644
     10.75099      2.13819      0.01213        -0.002475     -0.002564      0.002521
     -1.57382      3.56123      0.01110        -0.009855      0.007403      0.001756
      0.89078      2.13854      0.00548        -0.031827      0.013092     -0.051414
      0.89099      3.56147      0.00181        -0.033242      0.033535     -0.145842
      4.58864      0.00346      0.01135         0.013943      0.056251     -0.011315
      4.58894      1.42623      0.00646         0.042276     -0.038419     -0.200368
      9.51854      4.27281      0.01369         0.009955     -0.016724     -0.000149
     -2.80632      5.69591      0.01434        -0.018313      0.010452      0.000750
      2.12300      4.27302      0.00000        -0.030564      0.082694     -0.248941
      2.12335      5.69594      0.00581        -0.008974     -0.069520     -0.010321
      7.05344      0.00333      0.01399         0.003075     -0.001434      0.002689
      7.05353      1.42635      0.01368        -0.006625      0.006415      0.000642
      8.28610      6.40752      0.01601         0.006746     -0.007897     -0.000710
     -4.03885      7.83070      0.01636        -0.009719      0.010100     -0.000677
      3.35586      6.40753      0.01007         0.017519      0.008139      0.004878
      3.35599      7.83072      0.01320        -0.002612     -0.007461     -0.000037
     -0.34146      4.27290      0.00723         0.040870     -0.024926     -0.002922
     -0.34138      5.69591      0.00946        -0.007687      0.010496      0.005977
      3.35624      2.13791      0.00222        -0.001988     -0.021854     -0.390530
      3.35573      3.56155      0.00139         0.022891      0.041650     -0.263927
     -1.57395      6.40758      0.01311         0.018591     -0.000869     -0.001427
     -1.57385      7.83068      0.01438        -0.005687      0.003612     -0.000362
      5.82093      2.13784      0.01033        -0.031608     -0.034395     -0.026069
      5.82114      3.56097      0.01156         0.004293      0.001209      0.010332
      0.89092      6.40755      0.00907        -0.003997      0.002176      0.005430
      0.89106      7.83068      0.01235        -0.013798     -0.005769     -0.000412
      4.58871      4.27293      0.00850        -0.003004     -0.018208      0.006052
      4.58852      5.69606      0.01149        -0.001283      0.025656      0.003412
      9.51845      0.00337      0.01490         0.010824     -0.010060      0.000031
      9.51855      1.42644      0.01438        -0.004569      0.017041     -0.001055
      8.28593      2.13803      0.01453         0.002280     -0.010465      0.000581
      8.28613      3.56115      0.01464        -0.004320      0.002620     -0.000360
      7.05356      4.27269      0.01457        -0.001509     -0.002894      0.000442
      7.05362      5.69588      0.01553        -0.003236      0.002827     -0.001098
      5.82112      6.40755      0.01489        -0.001931     -0.002971     -0.001909
      5.82102      7.83073      0.01579        -0.008064      0.007252     -0.000788
      7.05363      8.54227      0.01631         0.005884     -0.004803      0.000203
     -5.27149      9.96549      0.01495        -0.001398     -0.000030     -0.003741
     -2.80638      8.54234      0.01558         0.001349      0.003997     -0.001136
     -2.80627      9.96553      0.01362        -0.016215     -0.005561      0.007526
     -0.34149      8.54239      0.01378         0.007983      0.001664     -0.000027
     -0.34138      9.96550      0.01354        -0.006108      0.003552      0.003089
      2.12343      8.54232      0.01336         0.009000      0.001253      0.000500
      2.12354      9.96544      0.01469        -0.009909      0.001463     -0.002749
      4.58846      8.54235      0.01505         0.015223     -0.010847      0.000772
      4.58853      9.96550      0.01517        -0.001388      0.009463      0.000457
      3.04930      2.68154      2.64866        -0.024029      0.000775      0.285747
      4.02070      2.02068      2.71308        -1.378634      0.987461      0.396527
      2.07767      3.34267      2.58920         1.435463     -1.046908      0.673403
 -----------------------------------------------------------------------------------
    total drift:                               -0.000259     -0.000604      0.004802


--------------------------------------------------------------------------------------------------------



  FREE ENERGIE OF THE ION-ELECTRON SYSTEM (eV)
  ---------------------------------------------------
  free  energy   TOTEN  =      -523.10709449 eV

  energy  without entropy=     -523.10709449  energy(sigma->0) =     -523.10709449
 


--------------------------------------------------------------------------------------------------------


    POTLOK:  cpu time    1.8958: real time    1.9063


--------------------------------------------------------------------------------------------------------


 writing wavefunctions
     LOOP+:  cpu time  911.7612: real time  919.2419
    4ORBIT:  cpu time    0.0000: real time    0.0000

 total amount of memory used by VASP MPI-rank0   698619. kBytes
=======================================================================

   base      :      30000. kBytes
   nonl-proj :     230539. kBytes
   fftplans  :      40716. kBytes
   grid      :     363125. kBytes
   one-center:        162. kBytes
   wavefun   :      34077. kBytes
 
  
  
 General timing and accounting informations for this job:
 ========================================================
  
                  Total CPU time used (sec):      956.451
                            User time (sec):      930.393
                          System time (sec):       26.057
                         Elapsed time (sec):      965.320
  
                   Maximum memory used (kb):     1278540.
                   Average memory used (kb):          N/A
  
                          Minor page faults:       149793
                          Major page faults:           86
                 Voluntary context switches:         3674
