 vasp.6.2.1 16May21 (build Nov 06 2021 14:46:37) complex                        
  
 executed on             LinuxIFC date 2025.04.06  11:44:41
 running on  112 total cores
 distrk:  each k-point on   56 cores,    2 groups
 distr:  one band on NCORE=   1 cores,   56 groups


--------------------------------------------------------------------------------------------------------


 INCAR:
   ALGO = Conjugate
   KPAR = 2
   NCORE = 32
   ISMEAR = 0
   SIGMA = 0.01
   PREC = Accurate
   EDIFF = 1E-7
   ENCUT = 1000
   ISIF = 0
   METAGGA = R2SCAN
   LASPH = .TRUE.
   SYMPREC = 1E-7

 POTCAR:    PAW_PBE C_h 06Feb2004                 
 POTCAR:    PAW_PBE O_h 06Feb2004                 
 -----------------------------------------------------------------------------
|                                                                             |
|           W    W    AA    RRRRR   N    N  II  N    N   GGGG   !!!           |
|           W    W   A  A   R    R  NN   N  II  NN   N  G    G  !!!           |
|           W    W  A    A  R    R  N N  N  II  N N  N  G       !!!           |
|           W WW W  AAAAAA  RRRRR   N  N N  II  N  N N  G  GGG   !            |
|           WW  WW  A    A  R   R   N   NN  II  N   NN  G    G                |
|           W    W  A    A  R    R  N    N  II  N    N   GGGG   !!!           |
|                                                                             |
|     The value NCORE = 32 specified in the INCAR file was overwritten,       |
|     because it was not compatible with the 56 processes available:          |
|     NCORE = 1                                                               |
|     was used instead, please check that this makes sense for your           |
|     machine.                                                                |
|                                                                             |
 -----------------------------------------------------------------------------

 -----------------------------------------------------------------------------
|                                                                             |
|           W    W    AA    RRRRR   N    N  II  N    N   GGGG   !!!           |
|           W    W   A  A   R    R  NN   N  II  NN   N  G    G  !!!           |
|           W    W  A    A  R    R  N N  N  II  N N  N  G       !!!           |
|           W WW W  AAAAAA  RRRRR   N  N N  II  N  N N  G  GGG   !            |
|           WW  WW  A    A  R   R   N   NN  II  N   NN  G    G                |
|           W    W  A    A  R    R  N    N  II  N    N   GGGG   !!!           |
|                                                                             |
|     For optimal performance we recommend to set                             |
|       NCORE = 2 up to number-of-cores-per-socket                            |
|     NCORE specifies how many cores store one orbital (NPAR=cpu/NCORE).      |
|     This setting can greatly improve the performance of VASP for DFT.       |
|     The default, NCORE=1 might be grossly inefficient on modern             |
|     multi-core architectures or massively parallel machines. Do your        |
|     own testing! More info at https://www.vasp.at/wiki/index.php/NCORE      |
|     Unfortunately you need to use the default for GW and RPA                |
|     calculations (for HF NCORE is supported but not extensively tested      |
|     yet).                                                                   |
|                                                                             |
 -----------------------------------------------------------------------------

 POTCAR:    PAW_PBE C_h 06Feb2004                 
   VRHFIN =C: s2p2                                                                                  
   LEXCH  = PE                                                                                      
   EATOM  =   147.1560 eV,   10.8157 Ry                                                             
                                                                                                    
   TITEL  = PAW_PBE C_h 06Feb2004                                                                   
   LULTRA =        F    use ultrasoft PP ?                                                          
   IUNSCR =        1    unscreen: 0-lin 1-nonlin 2-no                                               
   RPACOR =    0.800    partial core radius                                                         
   POMASS =   12.011; ZVAL   =    4.000    mass and valenz                                          
   RCORE  =    1.100    outmost cutoff radius                                                       
   RWIGS  =    1.630; RWIGS  =    0.863    wigner-seitz radius (au A)                               
   ENMAX  =  700.000; ENMIN  =  500.000 eV                                                          
   ICORE  =        2    local potential                                                             
   LCOR   =        T    correct aug charges                                                         
   LPAW   =        T    paw PP                                                                      
   EAUG   =  946.768                                                                                
   DEXC   =    0.000                                                                                
   RMAX   =    1.128    core radius for proj-oper                                                   
   RAUG   =    1.300    factor for augmentation sphere                                              
   RDEP   =    1.162    radius for radial grids                                                     
   RDEPT  =    1.088    core radius for aug-charge                                                  
                                                                                                    
   Atomic configuration                                                                             
    4 entries                                                                                       
     n  l   j            E        occ.                                                              
     1  0  0.50      -273.3789   2.0000                                                             
     2  0  0.50       -13.7508   2.0000                                                             
     2  1  0.50        -5.2854   2.0000                                                             
     3  2  1.50        -5.4423   0.0000                                                             
   Description                                                                                      
     l       E           TYP  RCUT    TYP  RCUT                                                     
     0    -13.7508458     23  1.100                                                                 
     0     -8.2022199     23  1.100                                                                 
     1     -5.2854383     23  1.100                                                                 
     1      1.1560700     23  1.100                                                                 
     2     -5.4423304      7  1.100                                                                 
  local pseudopotential read in
  partial core-charges read in
  partial kinetic energy density read in
  atomic valenz-charges read in
  non local Contribution for L=           0  read in
    real space projection operators read in
  non local Contribution for L=           0  read in
    real space projection operators read in
  non local Contribution for L=           1  read in
    real space projection operators read in
  non local Contribution for L=           1  read in
    real space projection operators read in
    PAW grid and wavefunctions read in
 
   number of l-projection  operators is LMAX  =           4
   number of lm-projection operators is LMMAX =           8
 
 POTCAR:    PAW_PBE O_h 06Feb2004                 
   VRHFIN =O: s2p4                                                                                  
   LEXCH  = PE                                                                                      
   EATOM  =   432.3788 eV,   31.7789 Ry                                                             
                                                                                                    
   TITEL  = PAW_PBE O_h 06Feb2004                                                                   
   LULTRA =        F    use ultrasoft PP ?                                                          
   IUNSCR =        1    unscreen: 0-lin 1-nonlin 2-no                                               
   RPACOR =    0.800    partial core radius                                                         
   POMASS =   16.000; ZVAL   =    6.000    mass and valenz                                          
   RCORE  =    1.100    outmost cutoff radius                                                       
   RWIGS  =    1.400; RWIGS  =    0.741    wigner-seitz radius (au A)                               
   ENMAX  =  700.000; ENMIN  =  500.000 eV                                                          
   ICORE  =        2    local potential                                                             
   LCOR   =        T    correct aug charges                                                         
   LPAW   =        T    paw PP                                                                      
   EAUG   =  888.804                                                                                
   DEXC   =    0.000                                                                                
   RMAX   =    1.128    core radius for proj-oper                                                   
   RAUG   =    1.300    factor for augmentation sphere                                              
   RDEP   =    1.125    radius for radial grids                                                     
   RDEPT  =    1.088    core radius for aug-charge                                                  
                                                                                                    
   Atomic configuration                                                                             
    4 entries                                                                                       
     n  l   j            E        occ.                                                              
     1  0  0.50      -514.6923   2.0000                                                             
     2  0  0.50       -23.9615   2.0000                                                             
     2  1  0.50        -9.0305   4.0000                                                             
     3  2  1.50        -9.5241   0.0000                                                             
   Description                                                                                      
     l       E           TYP  RCUT    TYP  RCUT                                                     
     0    -23.9615319     23  1.100                                                                 
     0    -25.3221145     23  1.100                                                                 
     1     -9.0304911     23  1.100                                                                 
     1     -5.4802209     23  1.100                                                                 
     2     -9.5240782      7  1.100                                                                 
  local pseudopotential read in
  partial core-charges read in
  partial kinetic energy density read in
  atomic valenz-charges read in
  non local Contribution for L=           0  read in
    real space projection operators read in
  non local Contribution for L=           0  read in
    real space projection operators read in
  non local Contribution for L=           1  read in
    real space projection operators read in
  non local Contribution for L=           1  read in
    real space projection operators read in
    PAW grid and wavefunctions read in
 
   number of l-projection  operators is LMAX  =           4
   number of lm-projection operators is LMMAX =           8
 
 -----------------------------------------------------------------------------
|                                                                             |
|               ----> ADVICE to this user running VASP <----                  |
|                                                                             |
|     You have a (more or less) 'large supercell' and for larger cells it     |
|     might be more efficient to use real-space projection operators.         |
|     Therefore, try LREAL= Auto in the INCAR file.                           |
|     Mind: For very accurate calculation, you might also keep the            |
|     reciprocal projection scheme (i.e. LREAL=.FALSE.).                      |
|                                                                             |
 -----------------------------------------------------------------------------

  PAW_PBE C_h 06Feb2004                 :
 energy of atom  1       EATOM= -147.1560
 kinetic energy error for atom=    0.0031 (will be added to EATOM!!)
  PAW_PBE O_h 06Feb2004                 :
 energy of atom  2       EATOM= -432.3788
 kinetic energy error for atom=    0.0171 (will be added to EATOM!!)
 
 
 POSCAR:  C  O
  positions in cartesian coordinates
  No initial velocities read in

 METAGGA = R2SCA    LMAXTAU =  6    LMIXTAU =  F

 exchange correlation table for  LEXCH =        8
   RHO(1)=    0.500       N(1)  =     2000
   RHO(2)=  100.500       N(2)  =     4000
 


--------------------------------------------------------------------------------------------------------


 ion  position               nearest neighbor table
   1  0.972  0.000  0.001-  50 1.42   2 1.42  42 1.42
   2  0.039  0.134  0.001-   5 1.42   7 1.42   1 1.42
   3  0.172  0.000  0.001-  42 1.42  44 1.42   4 1.42
   4  0.239  0.134  0.000-   7 1.42   3 1.42  23 1.42
   5  0.972  0.200  0.001-   6 1.42   2 1.42  34 1.42
   6  0.039  0.334  0.001-   5 1.42  21 1.42  11 1.42
   7  0.172  0.200  0.000-   8 1.42   2 1.42   4 1.42
   8  0.239  0.334  0.000-  13 1.42   7 1.42  21 1.42
   9  0.372  0.000  0.001-  10 1.42  44 1.42  46 1.42
  10  0.439  0.134  0.000-  27 1.42   9 1.42  23 1.42
  11  0.972  0.400  0.001-  12 1.42  36 1.42   6 1.42
  12  0.039  0.534  0.001-  25 1.42  11 1.42  17 1.42
  13  0.372  0.400  0.000-   8 1.42  14 1.42  24 1.42
  14  0.439  0.534  0.000-  13 1.42  29 1.42  19 1.42
  15  0.572  0.000  0.001-  46 1.42  16 1.42  48 1.42
  16  0.639  0.134  0.001-  15 1.42  35 1.42  27 1.42
  17  0.972  0.600  0.001-  38 1.42  18 1.42  12 1.42
  18  0.039  0.734  0.001-  43 1.42  41 1.42  17 1.42
  19  0.572  0.600  0.001-  14 1.42  20 1.42  32 1.42
  20  0.639  0.734  0.001-  49 1.42  19 1.42  47 1.42
  21  0.172  0.400  0.000-  22 1.42   8 1.42   6 1.42
  22  0.239  0.534  0.000-  21 1.42  29 1.42  25 1.42
  23  0.372  0.200  0.000-  10 1.42   4 1.42  24 1.42
  24  0.439  0.334  0.000-  13 1.42  31 1.42  23 1.42
  25  0.172  0.600  0.001-  26 1.42  12 1.42  22 1.42
  26  0.239  0.734  0.001-  25 1.42  45 1.42  43 1.42
  27  0.572  0.200  0.001-  10 1.42  28 1.42  16 1.42
  28  0.639  0.334  0.001-  27 1.42  37 1.42  31 1.42
  29  0.372  0.600  0.000-  22 1.42  14 1.42  30 1.42
  30  0.439  0.734  0.001-  47 1.42  29 1.42  45 1.42
  31  0.572  0.400  0.000-  32 1.42  28 1.42  24 1.42
  32  0.639  0.534  0.001-  31 1.42  39 1.42  19 1.42
  33  0.772  0.000  0.001-  34 1.42  48 1.42  50 1.42
  34  0.839  0.134  0.001-  33 1.42   5 1.42  35 1.42
  35  0.772  0.200  0.001-  36 1.42  16 1.42  34 1.42
  36  0.839  0.334  0.001-  35 1.42  11 1.42  37 1.42
  37  0.772  0.400  0.001-  28 1.42  38 1.42  36 1.42
  38  0.839  0.534  0.001-  17 1.42  37 1.42  39 1.42
  39  0.772  0.600  0.001-  40 1.42  38 1.42  32 1.42
  40  0.839  0.734  0.001-  39 1.42  49 1.42  41 1.42
  41  0.972  0.800  0.001-  18 1.42  42 1.42  40 1.42
  42  0.039  0.934  0.001-   3 1.42  41 1.42   1 1.42
  43  0.172  0.800  0.001-  18 1.42  44 1.42  26 1.42
  44  0.239  0.934  0.001-   9 1.42  43 1.42   3 1.42
  45  0.372  0.800  0.001-  26 1.42  46 1.42  30 1.42
  46  0.439  0.934  0.001-  15 1.42  45 1.42   9 1.42
  47  0.572  0.800  0.001-  30 1.42  48 1.42  20 1.42
  48  0.639  0.934  0.001-  47 1.42  33 1.42  15 1.42
  49  0.772  0.800  0.001-  50 1.42  20 1.42  40 1.42
  50  0.839  0.934  0.001-  49 1.42   1 1.42  33 1.42
  51  0.373  0.251  0.210-  52 1.18  53 1.18
  52  0.421  0.189  0.213-  51 1.18
  53  0.325  0.313  0.207-  51 1.18
 
  LATTYP: Found a hexagonal cell.
 ALAT       =    12.3250000000
 C/A-ratio  =     1.6227180527
  
  Lattice vectors:
  
 A1 = (  12.3250000000,   0.0000000000,   0.0000000000)
 A2 = (  -6.1625000000,  10.6737631016,   0.0000000000)
 A3 = (   0.0000000000,   0.0000000000,  20.0000000000)


Analysis of symmetry for initial positions (statically):
=====================================================================
 Subroutine PRICEL returns:
 Original cell was already a primitive cell.
 

 Routine SETGRP: Setting up the symmetry group for a 
 hexagonal supercell.


 Subroutine GETGRP returns: Found  1 space group operations
 (whereof  1 operations were pure point group operations)
 out of a pool of 24 trial point group operations.


The static configuration has the point symmetry C_1 .


Analysis of symmetry for dynamics (positions and initial velocities):
=====================================================================
 Subroutine PRICEL returns:
 Original cell was already a primitive cell.
 

 Routine SETGRP: Setting up the symmetry group for a 
 hexagonal supercell.


 Subroutine GETGRP returns: Found  1 space group operations
 (whereof  1 operations were pure point group operations)
 out of a pool of 24 trial point group operations.


The dynamic configuration has the point symmetry C_1 .


 Subroutine INISYM returns: Found  1 space group operations
 (whereof  1 operations are pure point group operations),
 and found     1 'primitive' translations


----------------------------------------------------------------------------------------

                                     Primitive cell                                     

  volume of cell :    2631.0826

  direct lattice vectors                    reciprocal lattice vectors
    12.325000000  0.000000000  0.000000000     0.081135903  0.046843835  0.000000000
    -6.162500000 10.673763102  0.000000000     0.000000000  0.093687670  0.000000000
     0.000000000  0.000000000 20.000000000     0.000000000  0.000000000  0.050000000

  length of vectors
    12.325000000 12.325000000 20.000000000     0.093687670  0.093687670  0.050000000

  position of ions in fractional coordinates (direct lattice)
     0.972450841  0.000320818  0.000708389
     0.039118382  0.133659505  0.000550216
     0.172443627  0.000295449  0.000624535
     0.239096278  0.133647917  0.000320585
     0.972452058  0.200322012  0.000606523
     0.039128360  0.333643771  0.000555187
     0.172451764  0.200354552  0.000273959
     0.239124359  0.333665720  0.000090325
     0.372465565  0.000324403  0.000567391
     0.439137473  0.133619939  0.000322923
     0.972449824  0.400309362  0.000684513
     0.039124981  0.533636789  0.000716763
     0.372416176  0.400329481  0.000000000
     0.439099602  0.533638981  0.000290518
     0.572443676  0.000312125  0.000699475
     0.639110207  0.133631751  0.000684093
     0.972452703  0.600305653  0.000800361
     0.039124495  0.733640359  0.000818141
     0.572433471  0.600306242  0.000503618
     0.639111888  0.733641879  0.000659881
     0.172454630  0.400318228  0.000361306
     0.239120185  0.533636548  0.000473136
     0.372459750  0.200295993  0.000111246
     0.439107096  0.333673419  0.000069702
     0.172452155  0.600311506  0.000655425
     0.239123371  0.733638574  0.000718912
     0.572431082  0.200289171  0.000516621
     0.639112773  0.333618630  0.000577970
     0.372439808  0.600308022  0.000453556
     0.439116090  0.733637858  0.000617737
     0.572469358  0.400320504  0.000424897
     0.639119408  0.533650873  0.000574513
     0.772445723  0.000315427  0.000745201
     0.839116277  0.133640203  0.000719132
     0.772440513  0.200307432  0.000726291
     0.839120241  0.333635728  0.000731834
     0.772446320  0.400298367  0.000728722
     0.839118980  0.533633964  0.000776376
     0.772456143  0.600308173  0.000744639
     0.839115033  0.733643180  0.000789390
     0.972455313  0.800305582  0.000815291
     0.039114714  0.933643289  0.000747563
     0.172457971  0.800312211  0.000779216
     0.239134551  0.933647193  0.000681063
     0.372451396  0.800316674  0.000689249
     0.439124489  0.933644769  0.000676788
     0.572441101  0.800310054  0.000668168
     0.639115067  0.933638985  0.000734556
     0.772445098  0.800313187  0.000752577
     0.839116614  0.933644338  0.000758538
     0.373021009  0.251226878  0.210224104
     0.420879805  0.189313152  0.213445197
     0.325156981  0.313167186  0.207251361

  ion indices of the primitive-cell ions
   primitive index   ion index
                 1           1
                 2           2
                 3           3
                 4           4
                 5           5
                 6           6
                 7           7
                 8           8
                 9           9
                10          10
                11          11
                12          12
                13          13
                14          14
                15          15
                16          16
                17          17
                18          18
                19          19
                20          20
                21          21
                22          22
                23          23
                24          24
                25          25
                26          26
                27          27
                28          28
                29          29
                30          30
                31          31
                32          32
                33          33
                34          34
                35          35
                36          36
                37          37
                38          38
                39          39
                40          40
                41          41
                42          42
                43          43
                44          44
                45          45
                46          46
                47          47
                48          48
                49          49
                50          50
                51          51
                52          52
                53          53

----------------------------------------------------------------------------------------

 
 
 KPOINTS: auto                                    

Automatic generation of k-mesh.
 Grid dimensions read from file:
 generate k-points for:    1    1    1

 Generating k-lattice:

  Cartesian coordinates                     Fractional coordinates (reciprocal lattice)
     0.081135903  0.046843835  0.000000000     1.000000000 -0.000000000  0.000000000
     0.000000000  0.093687670  0.000000000     0.000000000  1.000000000  0.000000000
     0.000000000  0.000000000  0.050000000     0.000000000  0.000000000  1.000000000

  Length of vectors
     0.093687670  0.093687670  0.050000000

  Shift w.r.t. Gamma in fractional coordinates (k-lattice)
     0.000000000  0.000000000  0.000000000

 
 Subroutine IBZKPT returns following result:
 ===========================================
 
 Found      1 irreducible k-points:
 
 Following reciprocal coordinates:
            Coordinates               Weight
  0.000000  0.000000  0.000000      1.000000
 
 Following cartesian coordinates:
            Coordinates               Weight
  0.000000  0.000000  0.000000      1.000000
 


--------------------------------------------------------------------------------------------------------




 Dimension of arrays:
   k-points           NKPTS =      1   k-points in BZ     NKDIM =      1   number of bands    NBANDS=    168
   number of dos      NEDOS =    301   number of ions     NIONS =     53
   non local maximal  LDIM  =      4   non local SUM 2l+1 LMDIM =      8
   total plane-waves  NPLWV = ******
   max r-space proj   IRMAX =      1   max aug-charges    IRDMAX=   9736
   dimension x,y,z NGX =   128 NGY =  128 NGZ =  210
   dimension x,y,z NGXF=   256 NGYF=  256 NGZF=  420
   support grid    NGXF=   256 NGYF=  256 NGZF=  420
   ions per type =              51   2
   NGX,Y,Z   is equivalent  to a cutoff of  17.27, 17.27, 17.46 a.u.
   NGXF,Y,Z  is equivalent  to a cutoff of  34.53, 34.53, 34.91 a.u.

 SYSTEM =  unknown system                          
 POSCAR =   C  O                                   

 Startparameter for this run:
   NWRITE =      2    write-flag & timer
   PREC   = accura    normal or accurate (medium, high low for compatibility)
   ISTART =      0    job   : 0-new  1-cont  2-samecut
   ICHARG =      2    charge: 1-file 2-atom 10-const
   ISPIN  =      1    spin polarized calculation?
   LNONCOLLINEAR =      F non collinear calculations
   LSORBIT =      F    spin-orbit coupling
   INIWAV =      1    electr: 0-lowe 1-rand  2-diag
   LASPH  =      T    aspherical Exc in radial PAW
 Electronic Relaxation 1
   ENCUT  = 1000.0 eV  73.50 Ry    8.57 a.u.  31.78 31.78 51.57*2*pi/ulx,y,z
   ENINI  = 1000.0     initial cutoff
   ENAUG  =  946.8 eV  augmentation charge cutoff
   NELM   =     60;   NELMIN=  2; NELMDL= -5     # of ELM steps 
   EDIFF  = 0.1E-06   stopping-criterion for ELM
   LREAL  =      F    real-space projection
   NLSPLINE    = F    spline interpolate recip. space projectors
   LCOMPAT=      F    compatible to vasp.4.4
   GGA_COMPAT  = T    GGA compatible to vasp.4.4-vasp.4.6
   LMAXPAW     = -100 max onsite density
   LMAXMIX     =    2 max onsite mixed and CHGCAR
   VOSKOWN=      0    Vosko Wilk Nusair interpolation
   ROPT   =    0.00000   0.00000
 Ionic relaxation
   EDIFFG = 0.1E-05   stopping-criterion for IOM
   NSW    =      0    number of steps for IOM
   NBLOCK =      1;   KBLOCK =      1    inner block; outer block 
   IBRION =     -1    ionic relax: 0-MD 1-quasi-New 2-CG
   NFREE  =      0    steps in history (QN), initial steepest desc. (CG)
   ISIF   =      0    stress and relaxation
   IWAVPR =     10    prediction:  0-non 1-charg 2-wave 3-comb
   ISYM   =      2    0-nonsym 1-usesym 2-fastsym
   LCORR  =      T    Harris-Foulkes like correction to forces

   POTIM  = 0.5000    time-step for ionic-motion
   TEIN   =    0.0    initial temperature
   TEBEG  =    0.0;   TEEND  =   0.0 temperature during run
   SMASS  =  -3.00    Nose mass-parameter (am)
   estimated Nose-frequenzy (Omega)   =  0.10E-29 period in steps = 0.13E+47 mass=  -0.347E-26a.u.
   SCALEE = 1.0000    scale energy and forces
   NPACO  =    256;   APACO  = 16.0  distance and # of slots for P.C.
   PSTRESS=    0.0 pullay stress

  Mass of Ions in am
   POMASS =  12.01 16.00
  Ionic Valenz
   ZVAL   =   4.00  6.00
  Atomic Wigner-Seitz radii
   RWIGS  =  -1.00 -1.00
  virtual crystal weights 
   VCA    =   1.00  1.00
   NELECT =     216.0000    total number of electrons
   NUPDOWN=      -1.0000    fix difference up-down

 DOS related values:
   EMIN   =  10.00;   EMAX   =-10.00  energy-range for DOS
   EFERMI =   0.00
   ISMEAR =     0;   SIGMA  =   0.01  broadening in eV -4-tet -1-fermi 0-gaus

 Electronic relaxation 2 (details)
   IALGO  =     58    algorithm
   LDIAG  =      T    sub-space diagonalisation (order eigenvalues)
   LSUBROT=      F    optimize rotation matrix (better conditioning)
   TURBO    =      0    0=normal 1=particle mesh
   IRESTART =      0    0=no restart 2=restart with 2 vectors
   NREBOOT  =      0    no. of reboots
   NMIN     =      0    reboot dimension
   EREF     =   0.00    reference energy to select bands
   IMIX   =      4    mixing-type and parameters
     AMIX     =   0.40;   BMIX     =  1.00
     AMIX_MAG =   1.60;   BMIX_MAG =  1.00
     AMIN     =   0.10
     WC   =   100.;   INIMIX=   1;  MIXPRE=   1;  MAXMIX= -45

 Intra band minimization:
   WEIMIN = 0.0000     energy-eigenvalue tresh-hold
   EBREAK =  0.15E-09  absolut break condition
   DEPER  =   0.30     relativ break condition  

   TIME   =   0.40     timestep for ELM

  volume/ion in A,a.u.               =      49.64       335.01
  Fermi-wavevector in a.u.,A,eV,Ry     =   0.711510  1.344560  6.887909  0.506247
  Thomas-Fermi vector in A             =   1.798641
 
 Write flags
   LWAVE        =      T    write WAVECAR
   LDOWNSAMPLE  =      F    k-point downsampling of WAVECAR
   LCHARG       =      T    write CHGCAR
   LVTOT        =      F    write LOCPOT, total local potential
   LVHAR        =      F    write LOCPOT, Hartree potential only
   LELF         =      F    write electronic localiz. function (ELF)
   LORBIT       =      0    0 simple, 1 ext, 2 COOP (PROOUT), +10 PAW based schemes


 Dipole corrections
   LMONO  =      F    monopole corrections only (constant potential shift)
   LDIPOL =      F    correct potential (dipole corrections)
   IDIPOL =      0    1-x, 2-y, 3-z, 4-all directions 
   EPSILON=  1.0000000 bulk dielectric constant

 Exchange correlation treatment:
   GGA     =    --    GGA type
   LEXCH   =     8    internal setting for exchange type
   VOSKOWN=      0    Vosko Wilk Nusair interpolation
   LHFCALC =     F    Hartree Fock is set to
   LHFONE  =     F    Hartree Fock one center treatment
   AEXX    =    0.0000 exact exchange contribution

 Linear response parameters
   LEPSILON=     F    determine dielectric tensor
   LRPA    =     F    only Hartree local field effects (RPA)
   LNABLA  =     F    use nabla operator in PAW spheres
   LVEL    =     F    velocity operator in full k-point grid
   LINTERFAST=   F  fast interpolation
   KINTER  =     0    interpolate to denser k-point grid
   CSHIFT  =0.1000    complex shift for real part using Kramers Kronig
   OMEGAMAX=  -1.0    maximum frequency
   DEG_THRESHOLD= 0.2000000E-02 threshold for treating states as degnerate
   RTIME   =   -0.100 relaxation time in fs
  (WPLASMAI=    0.000 imaginary part of plasma frequency in eV, 0.658/RTIME)
   DFIELD  = 0.0000000 0.0000000 0.0000000 field for delta impulse in time
 
 Orbital magnetization related:
   ORBITALMAG=     F  switch on orbital magnetization
   LCHIMAG   =     F  perturbation theory with respect to B field
   DQ        =  0.001000  dq finite difference perturbation B field
   LLRAUG    =     F  two centre corrections for induced B field



--------------------------------------------------------------------------------------------------------


 Static calculation
 charge density and potential will be updated during run
 non-spin polarized calculation
 Conjugate gradient for all bands (Freysoldt, et al. PRB 79, 241103 (2009))
 preconditioned conjugated gradient                                        
 perform sub-space diagonalisation
    before iterative eigenvector-optimisation
 modified Broyden-mixing scheme, WC =      100.0
 initial mixing is a Kerker type mixing with AMIX =  0.4000 and BMIX =      1.0000
 Hartree-type preconditioning will be used
 using additional bands           60
 reciprocal scheme for non local part
 use partial core corrections
 no Harris-corrections to forces 
 use gradient corrections 
 use of overlap-Matrix (Vanderbilt PP)
 Gauss-broadening in eV      SIGMA  =   0.01


--------------------------------------------------------------------------------------------------------


  energy-cutoff  :     1000.00
  volume of cell :     2631.08
      direct lattice vectors                 reciprocal lattice vectors
    12.325000000  0.000000000  0.000000000     0.081135903  0.046843835  0.000000000
    -6.162500000 10.673763102  0.000000000     0.000000000  0.093687670  0.000000000
     0.000000000  0.000000000 20.000000000     0.000000000  0.000000000  0.050000000

  length of vectors
    12.325000000 12.325000000 20.000000000     0.093687670  0.093687670  0.050000000


 
 k-points in units of 2pi/SCALE and weight: auto                                    
   0.00000000  0.00000000  0.00000000       1.000
 
 k-points in reciprocal lattice and weights: auto                                    
   0.00000000  0.00000000  0.00000000       1.000
 
 position of ions in fractional coordinates (direct lattice) 
   0.97245084  0.00032082  0.00070839
   0.03911838  0.13365950  0.00055022
   0.17244363  0.00029545  0.00062454
   0.23909628  0.13364792  0.00032058
   0.97245206  0.20032201  0.00060652
   0.03912836  0.33364377  0.00055519
   0.17245176  0.20035455  0.00027396
   0.23912436  0.33366572  0.00009033
   0.37246557  0.00032440  0.00056739
   0.43913747  0.13361994  0.00032292
   0.97244982  0.40030936  0.00068451
   0.03912498  0.53363679  0.00071676
   0.37241618  0.40032948  0.00000000
   0.43909960  0.53363898  0.00029052
   0.57244368  0.00031213  0.00069947
   0.63911021  0.13363175  0.00068409
   0.97245270  0.60030565  0.00080036
   0.03912449  0.73364036  0.00081814
   0.57243347  0.60030624  0.00050362
   0.63911189  0.73364188  0.00065988
   0.17245463  0.40031823  0.00036131
   0.23912018  0.53363655  0.00047314
   0.37245975  0.20029599  0.00011125
   0.43910710  0.33367342  0.00006970
   0.17245216  0.60031151  0.00065542
   0.23912337  0.73363857  0.00071891
   0.57243108  0.20028917  0.00051662
   0.63911277  0.33361863  0.00057797
   0.37243981  0.60030802  0.00045356
   0.43911609  0.73363786  0.00061774
   0.57246936  0.40032050  0.00042490
   0.63911941  0.53365087  0.00057451
   0.77244572  0.00031543  0.00074520
   0.83911628  0.13364020  0.00071913
   0.77244051  0.20030743  0.00072629
   0.83912024  0.33363573  0.00073183
   0.77244632  0.40029837  0.00072872
   0.83911898  0.53363396  0.00077638
   0.77245614  0.60030817  0.00074464
   0.83911503  0.73364318  0.00078939
   0.97245531  0.80030558  0.00081529
   0.03911471  0.93364329  0.00074756
   0.17245797  0.80031221  0.00077922
   0.23913455  0.93364719  0.00068106
   0.37245140  0.80031667  0.00068925
   0.43912449  0.93364477  0.00067679
   0.57244110  0.80031005  0.00066817
   0.63911507  0.93363899  0.00073456
   0.77244510  0.80031319  0.00075258
   0.83911661  0.93364434  0.00075854
   0.37302101  0.25122688  0.21022410
   0.42087980  0.18931315  0.21344520
   0.32515698  0.31316719  0.20725136
 
 position of ions in cartesian coordinates  (Angst):
  11.98347958  0.00342433  0.01416777
  -0.34154264  1.42664989  0.01100432
   2.12354700  0.00315355  0.01249070
   2.12325634  1.42652621  0.00641170
  10.75098721  2.13818970  0.01213047
  -1.57382270  3.56123457  0.01110375
   0.89078307  2.13853702  0.00547917
   0.89099273  3.56146885  0.00180651
   4.58863896  0.00346260  0.01134782
   4.58893648  1.42622757  0.00645846
   9.51853763  4.27280730  0.01369027
  -2.80632132  5.69591267  0.01433526
   2.12299894  4.27302204  0.00000000
   2.12335237  5.69593607  0.00581036
   7.05344483  0.00333155  0.01398950
   7.05352764  1.42635365  0.01368187
   8.28609598  6.40752033  0.01600723
  -4.03884931  7.83070339  0.01636283
   3.35585531  6.40752662  0.01007237
   3.35598594  7.83071962  0.01319763
  -0.34145776  4.27290193  0.00722612
  -0.34137895  5.69591010  0.00946273
   3.35624236  2.13791198  0.00222492
   3.35573251  3.56155103  0.00139405
  -1.57394684  6.40758280  0.01310850
  -1.57385216  7.83068434  0.01437823
   5.82093107  2.13783916  0.01033241
   5.82114012  3.56096622  0.01155939
   0.89092245  6.40754561  0.00907111
   0.89106251  7.83067670  0.01235474
   4.58870974  4.27292622  0.00849795
   4.58852320  5.69606300  0.01149026
   9.51844972  0.00336679  0.01490402
   9.51855036  1.42644387  0.01438264
   8.28593477  2.13803408  0.01452582
   8.28612680  3.56114872  0.01463668
   7.05356221  4.27268994  0.01457444
   7.05362213  5.69588251  0.01552751
   5.82112285  6.40754723  0.01489279
   5.82101669  7.83073350  0.01578780
   7.05362858  8.54227219  0.01630582
  -5.27148792  9.96548729  0.01495127
  -2.80637951  8.54234295  0.01558431
  -2.80626749  9.96552896  0.01362126
  -0.34148805  8.54239058  0.01378498
  -0.34137657  9.96550309  0.01353576
   2.12342586  8.54231992  0.01336337
   2.12354296  9.96544135  0.01469111
   4.58845581  8.54235337  0.01505154
   4.58852904  9.96549848  0.01517076
   3.04929830  2.68153618  4.20448208
   4.02070129  2.02068374  4.26890394
   2.07766701  3.34267235  4.14502721
 


--------------------------------------------------------------------------------------------------------


 k-point   1 :   0.0000 0.0000 0.0000  plane waves:  189031

 maximum and minimum number of plane-waves per node :    189031   189031

 maximum number of plane-waves:    189031
 maximum index in each direction: 
   IXMAX=   31   IYMAX=   31   IZMAX=   51
   IXMIN=  -31   IYMIN=  -31   IZMIN=  -51


 serial   3D FFT for wavefunctions
 parallel 3D FFT for charge:
    minimum data exchange during FFTs selected (reduces bandwidth)


 total amount of memory used by VASP MPI-rank0   556209. kBytes
=======================================================================

   base      :      30000. kBytes
   nonl-proj :     184518. kBytes
   fftplans  :      31725. kBytes
   grid      :     282516. kBytes
   one-center:        162. kBytes
   wavefun   :      27288. kBytes
 
     INWAV:  cpu time    0.0001: real time    0.0005
 Broyden mixing: mesh for mixing (old mesh)
   NGX = 63   NGY = 63   NGZ =103
  (NGX  =256   NGY  =256   NGZ  =420)
  gives a total of 408807 points

 initial charge density was supplied:
 charge density of overlapping atoms calculated
 number of electron     216.0000000 magnetization 
 keeping initial charge density in first step


--------------------------------------------------------------------------------------------------------


 Maximum index for augmentation-charges          459 (set IRDMAX)


--------------------------------------------------------------------------------------------------------


 First call to EWALD:  gamma=   0.128
 Maximum number of real-space cells 3x 3x 2
 Maximum number of reciprocal cells 3x 3x 4

    FEWALD:  cpu time    0.0023: real time    0.0023


--------------------------------------- Iteration      1(   1)  ---------------------------------------


    POTLOK:  cpu time    1.2708: real time    1.2803
    SETDIJ:  cpu time    0.1958: real time    0.1965
    TRIAL :  cpu time   21.9380: real time   22.1167
    CORREC:  cpu time    0.0004: real time    0.0006
    --------------------------------------------
      LOOP:  cpu time   23.4148: real time   23.6132

 eigenvalue-minimisations  :   336
 total energy-change (2. order) : 0.2417271E+04  (-0.1181151E+05)
 number of electron     216.0000000 magnetization 
 augmentation part      216.0000000 magnetization 

 Free energy of the ion-electron system (eV)
  ---------------------------------------------------
  alpha Z        PSCENC =        59.93625244
  Ewald energy   TEWEN  =     32916.94435984
  -Hartree energ DENC   =    -39092.34147548
  -exchange      EXHF   =         0.00000000
  -V(xc)+E(xc)   XCENC  =       605.09490544
  PAW double counting   =      6340.10990386    -6200.63067283
  entropy T*S    EENTRO =        -0.00000000
  eigenvalues    EBANDS =      -581.36631410
  atomic energy  EATOM  =      8369.52358910
  ---------------------------------------------------
  free energy    TOTEN  =      2417.27054827 eV

  energy without entropy =     2417.27054827  energy(sigma->0) =     2417.27054827


--------------------------------------------------------------------------------------------------------




--------------------------------------- Iteration      1(   2)  ---------------------------------------


    TRIAL :  cpu time   31.1008: real time   31.4046
    CORREC:  cpu time    0.0001: real time    0.0001
    --------------------------------------------
      LOOP:  cpu time   31.1452: real time   31.4888

 eigenvalue-minimisations  :   560
 total energy-change (2. order) :-0.2437664E+04  (-0.2307971E+04)
 number of electron     216.0000000 magnetization 
 augmentation part      216.0000000 magnetization 

 Free energy of the ion-electron system (eV)
  ---------------------------------------------------
  alpha Z        PSCENC =        59.93625244
  Ewald energy   TEWEN  =     32916.94435984
  -Hartree energ DENC   =    -39092.34147548
  -exchange      EXHF   =         0.00000000
  -V(xc)+E(xc)   XCENC  =       605.09490544
  PAW double counting   =      6340.10990386    -6200.63067283
  entropy T*S    EENTRO =        -0.00000000
  eigenvalues    EBANDS =     -3019.03010664
  atomic energy  EATOM  =      8369.52358910
  ---------------------------------------------------
  free energy    TOTEN  =       -20.39324427 eV

  energy without entropy =      -20.39324427  energy(sigma->0) =      -20.39324427


--------------------------------------------------------------------------------------------------------




--------------------------------------- Iteration      1(   3)  ---------------------------------------


    TRIAL :  cpu time   24.2037: real time   24.4032
    CORREC:  cpu time    0.0001: real time    0.0001
    --------------------------------------------
      LOOP:  cpu time   24.2533: real time   24.4772

 eigenvalue-minimisations  :   392
 total energy-change (2. order) :-0.5602372E+03  (-0.5574413E+03)
 number of electron     216.0000000 magnetization 
 augmentation part      216.0000000 magnetization 

 Free energy of the ion-electron system (eV)
  ---------------------------------------------------
  alpha Z        PSCENC =        59.93625244
  Ewald energy   TEWEN  =     32916.94435984
  -Hartree energ DENC   =    -39092.34147548
  -exchange      EXHF   =         0.00000000
  -V(xc)+E(xc)   XCENC  =       605.09490544
  PAW double counting   =      6340.10990386    -6200.63067283
  entropy T*S    EENTRO =        -0.00000000
  eigenvalues    EBANDS =     -3579.26726256
  atomic energy  EATOM  =      8369.52358910
  ---------------------------------------------------
  free energy    TOTEN  =      -580.63040019 eV

  energy without entropy =     -580.63040019  energy(sigma->0) =     -580.63040019


--------------------------------------------------------------------------------------------------------




--------------------------------------- Iteration      1(   4)  ---------------------------------------


    TRIAL :  cpu time   26.5411: real time   26.7585
    CORREC:  cpu time    0.0001: real time    0.0001
    --------------------------------------------
      LOOP:  cpu time   26.5761: real time   26.7963

 eigenvalue-minimisations  :   448
 total energy-change (2. order) :-0.2618779E+02  (-0.2602792E+02)
 number of electron     216.0000000 magnetization 
 augmentation part      216.0000000 magnetization 

 Free energy of the ion-electron system (eV)
  ---------------------------------------------------
  alpha Z        PSCENC =        59.93625244
  Ewald energy   TEWEN  =     32916.94435984
  -Hartree energ DENC   =    -39092.34147548
  -exchange      EXHF   =         0.00000000
  -V(xc)+E(xc)   XCENC  =       605.09490544
  PAW double counting   =      6340.10990386    -6200.63067283
  entropy T*S    EENTRO =        -0.00000000
  eigenvalues    EBANDS =     -3605.45505017
  atomic energy  EATOM  =      8369.52358910
  ---------------------------------------------------
  free energy    TOTEN  =      -606.81818780 eV

  energy without entropy =     -606.81818780  energy(sigma->0) =     -606.81818780


--------------------------------------------------------------------------------------------------------




--------------------------------------- Iteration      1(   5)  ---------------------------------------


    TRIAL :  cpu time   21.8959: real time   22.0735
    CORREC:  cpu time    0.0001: real time    0.0001
    CHARGE:  cpu time    2.3001: real time    2.3173
    --------------------------------------------
      LOOP:  cpu time   24.2428: real time   24.4413

 eigenvalue-minimisations  :   336
 total energy-change (2. order) :-0.9116396E+00  (-0.9110872E+00)
 number of electron     216.0000000 magnetization 
 augmentation part       -0.4472784 magnetization 

 Free energy of the ion-electron system (eV)
  ---------------------------------------------------
  alpha Z        PSCENC =        59.93625244
  Ewald energy   TEWEN  =     32916.94435984
  -Hartree energ DENC   =    -39092.34147548
  -exchange      EXHF   =         0.00000000
  -V(xc)+E(xc)   XCENC  =       605.09490544
  PAW double counting   =      6340.10990386    -6200.63067283
  entropy T*S    EENTRO =        -0.00000000
  eigenvalues    EBANDS =     -3606.36668981
  atomic energy  EATOM  =      8369.52358910
  ---------------------------------------------------
  free energy    TOTEN  =      -607.72982744 eV

  energy without entropy =     -607.72982744  energy(sigma->0) =     -607.72982744


--------------------------------------------------------------------------------------------------------




--------------------------------------- Iteration      1(   6)  ---------------------------------------


    POTLOK:  cpu time    1.2475: real time    1.2547
    SETDIJ:  cpu time    0.2026: real time    0.2032
    TRIAL :  cpu time   15.5518: real time   15.6648
    CORREC:  cpu time    6.8727: real time    6.9206
    CHARGE:  cpu time    2.2872: real time    2.3047
    --------------------------------------------
      LOOP:  cpu time   26.1883: real time   26.3817

 eigenvalue-minimisations  :     0
 total energy-change (2. order) : 0.9795490E+02  (-0.1126206E+02)
 number of electron     216.0000000 magnetization 
 augmentation part       -0.5092378 magnetization 

 Free energy of the ion-electron system (eV)
  ---------------------------------------------------
  alpha Z        PSCENC =        59.93625244
  Ewald energy   TEWEN  =     32916.94435984
  -Hartree energ DENC   =    -40406.66287565
  -exchange      EXHF   =         0.00000000
  -V(xc)+E(xc)   XCENC  =       676.75262505
  PAW double counting   =    119381.77045873  -119242.18409112
  entropy T*S    EENTRO =        -0.00000000
  eigenvalues    EBANDS =     -2265.85524488
  atomic energy  EATOM  =      8369.52358910
  ---------------------------------------------------
  free energy    TOTEN  =      -509.77492649 eV

  energy without entropy =     -509.77492649  energy(sigma->0) =     -509.77492649


--------------------------------------------------------------------------------------------------------




--------------------------------------- Iteration      1(   7)  ---------------------------------------


    POTLOK:  cpu time    1.2745: real time    1.2859
    SETDIJ:  cpu time    0.1554: real time    0.1559
    TRIAL :  cpu time   15.5533: real time   15.6661
    CORREC:  cpu time    6.8637: real time    6.9113
    CHARGE:  cpu time    2.2804: real time    2.2988
    --------------------------------------------
      LOOP:  cpu time   26.1852: real time   26.3910

 eigenvalue-minimisations  :     0
 total energy-change (2. order) :-0.1127478E+02  (-0.1485702E+01)
 number of electron     216.0000000 magnetization 
 augmentation part       -0.5427171 magnetization 

 Free energy of the ion-electron system (eV)
  ---------------------------------------------------
  alpha Z        PSCENC =        59.93625244
  Ewald energy   TEWEN  =     32916.94435984
  -Hartree energ DENC   =    -40005.55268448
  -exchange      EXHF   =         0.00000000
  -V(xc)+E(xc)   XCENC  =       659.17618188
  PAW double counting   =    138778.06133566  -138636.73839582
  entropy T*S    EENTRO =        -0.00000000
  eigenvalues    EBANDS =     -2662.40034189
  atomic energy  EATOM  =      8369.52358910
  ---------------------------------------------------
  free energy    TOTEN  =      -521.04970327 eV

  energy without entropy =     -521.04970327  energy(sigma->0) =     -521.04970327


--------------------------------------------------------------------------------------------------------




--------------------------------------- Iteration      1(   8)  ---------------------------------------


    POTLOK:  cpu time    1.2472: real time    1.2545
    SETDIJ:  cpu time    0.1806: real time    0.1812
    TRIAL :  cpu time   15.5157: real time   15.6609
    CORREC:  cpu time    6.8767: real time    6.9254
    CHARGE:  cpu time    2.2877: real time    2.3043
    --------------------------------------------
      LOOP:  cpu time   26.1873: real time   26.4082

 eigenvalue-minimisations  :     0
 total energy-change (2. order) :-0.1485934E+01  (-0.4790355E+00)
 number of electron     216.0000000 magnetization 
 augmentation part       -0.5435958 magnetization 

 Free energy of the ion-electron system (eV)
  ---------------------------------------------------
  alpha Z        PSCENC =        59.93625244
  Ewald energy   TEWEN  =     32916.94435984
  -Hartree energ DENC   =    -39976.40446001
  -exchange      EXHF   =         0.00000000
  -V(xc)+E(xc)   XCENC  =       658.07125251
  PAW double counting   =    148551.28256161  -148409.83216372
  entropy T*S    EENTRO =        -0.00000000
  eigenvalues    EBANDS =     -2692.05702874
  atomic energy  EATOM  =      8369.52358910
  ---------------------------------------------------
  free energy    TOTEN  =      -522.53563697 eV

  energy without entropy =     -522.53563697  energy(sigma->0) =     -522.53563697


--------------------------------------------------------------------------------------------------------




--------------------------------------- Iteration      1(   9)  ---------------------------------------


    POTLOK:  cpu time    1.2450: real time    1.2525
    SETDIJ:  cpu time    0.1883: real time    0.1890
    TRIAL :  cpu time   15.5343: real time   15.6644
    CORREC:  cpu time    6.8714: real time    6.9199
    CHARGE:  cpu time    2.2845: real time    2.3012
    --------------------------------------------
      LOOP:  cpu time   26.1788: real time   26.3848

 eigenvalue-minimisations  :     0
 total energy-change (2. order) :-0.4787192E+00  (-0.1910594E+00)
 number of electron     216.0000000 magnetization 
 augmentation part       -0.5401236 magnetization 

 Free energy of the ion-electron system (eV)
  ---------------------------------------------------
  alpha Z        PSCENC =        59.93625244
  Ewald energy   TEWEN  =     32916.94435984
  -Hartree energ DENC   =    -39982.99874404
  -exchange      EXHF   =         0.00000000
  -V(xc)+E(xc)   XCENC  =       658.03042124
  PAW double counting   =    156558.49551906  -156416.97236167
  entropy T*S    EENTRO =        -0.00000000
  eigenvalues    EBANDS =     -2685.97339217
  atomic energy  EATOM  =      8369.52358910
  ---------------------------------------------------
  free energy    TOTEN  =      -523.01435619 eV

  energy without entropy =     -523.01435619  energy(sigma->0) =     -523.01435619


--------------------------------------------------------------------------------------------------------




--------------------------------------- Iteration      1(  10)  ---------------------------------------


    POTLOK:  cpu time    1.2468: real time    1.2542
    SETDIJ:  cpu time    0.1871: real time    0.1877
    TRIAL :  cpu time   15.5236: real time   15.6551
    CORREC:  cpu time    6.8722: real time    6.9219
    CHARGE:  cpu time    2.2847: real time    2.3021
    --------------------------------------------
      LOOP:  cpu time   26.1681: real time   26.3760

 eigenvalue-minimisations  :     0
 total energy-change (2. order) :-0.1908074E+00  (-0.8542154E-01)
 number of electron     216.0000000 magnetization 
 augmentation part       -0.5345321 magnetization 

 Free energy of the ion-electron system (eV)
  ---------------------------------------------------
  alpha Z        PSCENC =        59.93625244
  Ewald energy   TEWEN  =     32916.94435984
  -Hartree energ DENC   =    -39982.05580118
  -exchange      EXHF   =         0.00000000
  -V(xc)+E(xc)   XCENC  =       657.92944865
  PAW double counting   =    160349.37623377  -160207.80383896
  entropy T*S    EENTRO =        -0.00000000
  eigenvalues    EBANDS =     -2687.05540727
  atomic energy  EATOM  =      8369.52358910
  ---------------------------------------------------
  free energy    TOTEN  =      -523.20516361 eV

  energy without entropy =     -523.20516361  energy(sigma->0) =     -523.20516361


--------------------------------------------------------------------------------------------------------




--------------------------------------- Iteration      1(  11)  ---------------------------------------


    POTLOK:  cpu time    1.2433: real time    1.2509
    SETDIJ:  cpu time    0.1928: real time    0.1934
    TRIAL :  cpu time   15.5366: real time   15.6544
    CORREC:  cpu time    6.8733: real time    6.9235
    CHARGE:  cpu time    2.2809: real time    2.2986
    --------------------------------------------
      LOOP:  cpu time   26.1659: real time   26.3609

 eigenvalue-minimisations  :     0
 total energy-change (2. order) :-0.8524230E-01  (-0.3272283E-01)
 number of electron     216.0000000 magnetization 
 augmentation part       -0.5308318 magnetization 

 Free energy of the ion-electron system (eV)
  ---------------------------------------------------
  alpha Z        PSCENC =        59.93625244
  Ewald energy   TEWEN  =     32916.94435984
  -Hartree energ DENC   =    -39976.02316233
  -exchange      EXHF   =         0.00000000
  -V(xc)+E(xc)   XCENC  =       657.84552341
  PAW double counting   =    160896.27229898  -160754.71902524
  entropy T*S    EENTRO =        -0.00000000
  eigenvalues    EBANDS =     -2693.07024211
  atomic energy  EATOM  =      8369.52358910
  ---------------------------------------------------
  free energy    TOTEN  =      -523.29040591 eV

  energy without entropy =     -523.29040591  energy(sigma->0) =     -523.29040591


--------------------------------------------------------------------------------------------------------




--------------------------------------- Iteration      1(  12)  ---------------------------------------


    POTLOK:  cpu time    1.2457: real time    1.2531
    SETDIJ:  cpu time    0.1863: real time    0.1869
    TRIAL :  cpu time   15.5442: real time   15.6596
    CORREC:  cpu time    6.8711: real time    6.9235
    CHARGE:  cpu time    2.2884: real time    2.3055
    --------------------------------------------
      LOOP:  cpu time   26.1842: real time   26.3798

 eigenvalue-minimisations  :     0
 total energy-change (2. order) :-0.3267607E-01  (-0.1001538E-01)
 number of electron     216.0000000 magnetization 
 augmentation part       -0.5305521 magnetization 

 Free energy of the ion-electron system (eV)
  ---------------------------------------------------
  alpha Z        PSCENC =        59.93625244
  Ewald energy   TEWEN  =     32916.94435984
  -Hartree energ DENC   =    -39971.62468336
  -exchange      EXHF   =         0.00000000
  -V(xc)+E(xc)   XCENC  =       657.77512520
  PAW double counting   =    160208.03556308  -160066.50938418
  entropy T*S    EENTRO =        -0.00000000
  eigenvalues    EBANDS =     -2697.40390410
  atomic energy  EATOM  =      8369.52358910
  ---------------------------------------------------
  free energy    TOTEN  =      -523.32308198 eV

  energy without entropy =     -523.32308198  energy(sigma->0) =     -523.32308198


--------------------------------------------------------------------------------------------------------




--------------------------------------- Iteration      1(  13)  ---------------------------------------


    POTLOK:  cpu time    1.2486: real time    1.2559
    SETDIJ:  cpu time    0.1804: real time    0.1810
    TRIAL :  cpu time   15.5471: real time   15.6639
    CORREC:  cpu time    6.8593: real time    6.9185
    CHARGE:  cpu time    2.2815: real time    2.3016
    --------------------------------------------
      LOOP:  cpu time   26.2183: real time   26.4331

 eigenvalue-minimisations  :     0
 total energy-change (2. order) :-0.9998027E-02  (-0.2854646E-02)
 number of electron     216.0000000 magnetization 
 augmentation part       -0.5310578 magnetization 

 Free energy of the ion-electron system (eV)
  ---------------------------------------------------
  alpha Z        PSCENC =        59.93625244
  Ewald energy   TEWEN  =     32916.94435984
  -Hartree energ DENC   =    -39970.37665049
  -exchange      EXHF   =         0.00000000
  -V(xc)+E(xc)   XCENC  =       657.72590408
  PAW double counting   =    159486.21535393  -159344.69324405
  entropy T*S    EENTRO =        -0.00000000
  eigenvalues    EBANDS =     -2698.60864488
  atomic energy  EATOM  =      8369.52358910
  ---------------------------------------------------
  free energy    TOTEN  =      -523.33308001 eV

  energy without entropy =     -523.33308001  energy(sigma->0) =     -523.33308001


--------------------------------------------------------------------------------------------------------




--------------------------------------- Iteration      1(  14)  ---------------------------------------


    POTLOK:  cpu time    1.2421: real time    1.2527
    SETDIJ:  cpu time    0.1875: real time    0.1882
    TRIAL :  cpu time   15.5331: real time   15.6570
    CORREC:  cpu time    6.8832: real time    6.9306
    CHARGE:  cpu time    2.2815: real time    2.3025
    --------------------------------------------
      LOOP:  cpu time   26.1710: real time   26.4031

 eigenvalue-minimisations  :     0
 total energy-change (2. order) :-0.2843087E-02  (-0.7698733E-03)
 number of electron     216.0000000 magnetization 
 augmentation part       -0.5313474 magnetization 

 Free energy of the ion-electron system (eV)
  ---------------------------------------------------
  alpha Z        PSCENC =        59.93625244
  Ewald energy   TEWEN  =     32916.94435984
  -Hartree energ DENC   =    -39970.50561394
  -exchange      EXHF   =         0.00000000
  -V(xc)+E(xc)   XCENC  =       657.71553913
  PAW double counting   =    159050.73551834  -158909.21208290
  entropy T*S    EENTRO =        -0.00000000
  eigenvalues    EBANDS =     -2698.47348511
  atomic energy  EATOM  =      8369.52358910
  ---------------------------------------------------
  free energy    TOTEN  =      -523.33592310 eV

  energy without entropy =     -523.33592310  energy(sigma->0) =     -523.33592310


--------------------------------------------------------------------------------------------------------




--------------------------------------- Iteration      1(  15)  ---------------------------------------


    POTLOK:  cpu time    1.2463: real time    1.2532
    SETDIJ:  cpu time    0.1894: real time    0.1900
    TRIAL :  cpu time   15.5467: real time   15.6796
    CORREC:  cpu time    6.9455: real time    6.9997
    CHARGE:  cpu time    2.2756: real time    2.2988
    --------------------------------------------
      LOOP:  cpu time   26.2824: real time   26.5025

 eigenvalue-minimisations  :     0
 total energy-change (2. order) :-0.7648173E-03  (-0.2339850E-03)
 number of electron     216.0000000 magnetization 
 augmentation part       -0.5315620 magnetization 

 Free energy of the ion-electron system (eV)
  ---------------------------------------------------
  alpha Z        PSCENC =        59.93625244
  Ewald energy   TEWEN  =     32916.94435984
  -Hartree energ DENC   =    -39970.46619894
  -exchange      EXHF   =         0.00000000
  -V(xc)+E(xc)   XCENC  =       657.71063569
  PAW double counting   =    158841.21749558  -158699.69294062
  entropy T*S    EENTRO =        -0.00000000
  eigenvalues    EBANDS =     -2698.50988100
  atomic energy  EATOM  =      8369.52358910
  ---------------------------------------------------
  free energy    TOTEN  =      -523.33668791 eV

  energy without entropy =     -523.33668791  energy(sigma->0) =     -523.33668791


--------------------------------------------------------------------------------------------------------




--------------------------------------- Iteration      1(  16)  ---------------------------------------


    POTLOK:  cpu time    1.2453: real time    1.2523
    SETDIJ:  cpu time    0.1878: real time    0.1884
    TRIAL :  cpu time   15.5360: real time   15.6593
    CORREC:  cpu time    6.8775: real time    6.9243
    CHARGE:  cpu time    2.2812: real time    2.2972
    --------------------------------------------
      LOOP:  cpu time   26.1942: real time   26.3896

 eigenvalue-minimisations  :     0
 total energy-change (2. order) :-0.2318577E-03  (-0.8734912E-04)
 number of electron     216.0000000 magnetization 
 augmentation part       -0.5316520 magnetization 

 Free energy of the ion-electron system (eV)
  ---------------------------------------------------
  alpha Z        PSCENC =        59.93625244
  Ewald energy   TEWEN  =     32916.94435984
  -Hartree energ DENC   =    -39970.37910344
  -exchange      EXHF   =         0.00000000
  -V(xc)+E(xc)   XCENC  =       657.70472670
  PAW double counting   =    158726.18241187  -158584.65613249
  entropy T*S    EENTRO =        -0.00000000
  eigenvalues    EBANDS =     -2698.59302379
  atomic energy  EATOM  =      8369.52358910
  ---------------------------------------------------
  free energy    TOTEN  =      -523.33691977 eV

  energy without entropy =     -523.33691977  energy(sigma->0) =     -523.33691977


--------------------------------------------------------------------------------------------------------




--------------------------------------- Iteration      1(  17)  ---------------------------------------


    POTLOK:  cpu time    1.2478: real time    1.2551
    SETDIJ:  cpu time    0.1862: real time    0.1868
    TRIAL :  cpu time   15.5324: real time   15.6613
    CORREC:  cpu time    6.8733: real time    6.9216
    CHARGE:  cpu time    2.2871: real time    2.3036
    --------------------------------------------
      LOOP:  cpu time   26.1617: real time   26.3704

 eigenvalue-minimisations  :     0
 total energy-change (2. order) :-0.8604297E-04  (-0.3612528E-04)
 number of electron     216.0000000 magnetization 
 augmentation part       -0.5316899 magnetization 

 Free energy of the ion-electron system (eV)
  ---------------------------------------------------
  alpha Z        PSCENC =        59.93625244
  Ewald energy   TEWEN  =     32916.94435984
  -Hartree energ DENC   =    -39970.53968546
  -exchange      EXHF   =         0.00000000
  -V(xc)+E(xc)   XCENC  =       657.71161080
  PAW double counting   =    158653.72629963  -158512.19989693
  entropy T*S    EENTRO =        -0.00000000
  eigenvalues    EBANDS =     -2698.43953525
  atomic energy  EATOM  =      8369.52358910
  ---------------------------------------------------
  free energy    TOTEN  =      -523.33700582 eV

  energy without entropy =     -523.33700582  energy(sigma->0) =     -523.33700582


--------------------------------------------------------------------------------------------------------




--------------------------------------- Iteration      1(  18)  ---------------------------------------


    POTLOK:  cpu time    1.2495: real time    1.2569
    SETDIJ:  cpu time    0.1853: real time    0.1860
    TRIAL :  cpu time   15.5253: real time   15.6686
    CORREC:  cpu time    6.8703: real time    6.9207
    CHARGE:  cpu time    2.2948: real time    2.3113
    --------------------------------------------
      LOOP:  cpu time   26.1366: real time   26.3747

 eigenvalue-minimisations  :     0
 total energy-change (2. order) :-0.3635164E-04  (-0.1398057E-04)
 number of electron     216.0000000 magnetization 
 augmentation part       -0.5317107 magnetization 

 Free energy of the ion-electron system (eV)
  ---------------------------------------------------
  alpha Z        PSCENC =        59.93625244
  Ewald energy   TEWEN  =     32916.94435984
  -Hartree energ DENC   =    -39970.61460352
  -exchange      EXHF   =         0.00000000
  -V(xc)+E(xc)   XCENC  =       657.71448416
  PAW double counting   =    158628.72481739  -158487.19815135
  entropy T*S    EENTRO =        -0.00000000
  eigenvalues    EBANDS =     -2698.36779024
  atomic energy  EATOM  =      8369.52358910
  ---------------------------------------------------
  free energy    TOTEN  =      -523.33704217 eV

  energy without entropy =     -523.33704217  energy(sigma->0) =     -523.33704217


--------------------------------------------------------------------------------------------------------




--------------------------------------- Iteration      1(  19)  ---------------------------------------


    POTLOK:  cpu time    1.2420: real time    1.2494
    SETDIJ:  cpu time    0.1923: real time    0.1930
    TRIAL :  cpu time   15.5584: real time   15.6828
    CORREC:  cpu time    6.8793: real time    6.9286
    CHARGE:  cpu time    2.2822: real time    2.3006
    --------------------------------------------
      LOOP:  cpu time   26.2167: real time   26.4313

 eigenvalue-minimisations  :     0
 total energy-change (2. order) :-0.1442296E-04  (-0.5148322E-05)
 number of electron     216.0000000 magnetization 
 augmentation part       -0.5317026 magnetization 

 Free energy of the ion-electron system (eV)
  ---------------------------------------------------
  alpha Z        PSCENC =        59.93625244
  Ewald energy   TEWEN  =     32916.94435984
  -Hartree energ DENC   =    -39970.60894926
  -exchange      EXHF   =         0.00000000
  -V(xc)+E(xc)   XCENC  =       657.71386070
  PAW double counting   =    158635.92092291  -158494.39394045
  entropy T*S    EENTRO =        -0.00000000
  eigenvalues    EBANDS =     -2698.37315187
  atomic energy  EATOM  =      8369.52358910
  ---------------------------------------------------
  free energy    TOTEN  =      -523.33705659 eV

  energy without entropy =     -523.33705659  energy(sigma->0) =     -523.33705659


--------------------------------------------------------------------------------------------------------




--------------------------------------- Iteration      1(  20)  ---------------------------------------


    POTLOK:  cpu time    1.2476: real time    1.2550
    SETDIJ:  cpu time    0.1855: real time    0.1861
    TRIAL :  cpu time   15.5686: real time   15.6884
    CORREC:  cpu time    6.8742: real time    6.9260
    CHARGE:  cpu time    2.2922: real time    2.3090
    --------------------------------------------
      LOOP:  cpu time   26.2008: real time   26.4098

 eigenvalue-minimisations  :     0
 total energy-change (2. order) :-0.5317561E-05  (-0.1810895E-05)
 number of electron     216.0000000 magnetization 
 augmentation part       -0.5316940 magnetization 

 Free energy of the ion-electron system (eV)
  ---------------------------------------------------
  alpha Z        PSCENC =        59.93625244
  Ewald energy   TEWEN  =     32916.94435984
  -Hartree energ DENC   =    -39970.62969099
  -exchange      EXHF   =         0.00000000
  -V(xc)+E(xc)   XCENC  =       657.71476176
  PAW double counting   =    158650.36530974  -158508.83843289
  entropy T*S    EENTRO =        -0.00000000
  eigenvalues    EBANDS =     -2698.35321091
  atomic energy  EATOM  =      8369.52358910
  ---------------------------------------------------
  free energy    TOTEN  =      -523.33706191 eV

  energy without entropy =     -523.33706191  energy(sigma->0) =     -523.33706191


--------------------------------------------------------------------------------------------------------




--------------------------------------- Iteration      1(  21)  ---------------------------------------


    POTLOK:  cpu time    1.2474: real time    1.2544
    SETDIJ:  cpu time    0.1890: real time    0.1896
    TRIAL :  cpu time   15.5529: real time   15.6675
    CORREC:  cpu time    6.8835: real time    6.9314
    CHARGE:  cpu time    2.2885: real time    2.3046
    --------------------------------------------
      LOOP:  cpu time   26.2017: real time   26.3929

 eigenvalue-minimisations  :     0
 total energy-change (2. order) :-0.1850509E-05  (-0.6732709E-06)
 number of electron     216.0000000 magnetization 
 augmentation part       -0.5316821 magnetization 

 Free energy of the ion-electron system (eV)
  ---------------------------------------------------
  alpha Z        PSCENC =        59.93625244
  Ewald energy   TEWEN  =     32916.94435984
  -Hartree energ DENC   =    -39970.63413488
  -exchange      EXHF   =         0.00000000
  -V(xc)+E(xc)   XCENC  =       657.71473383
  PAW double counting   =    158661.41587216  -158519.88905194
  entropy T*S    EENTRO =        -0.00000000
  eigenvalues    EBANDS =     -2698.34868431
  atomic energy  EATOM  =      8369.52358910
  ---------------------------------------------------
  free energy    TOTEN  =      -523.33706376 eV

  energy without entropy =     -523.33706376  energy(sigma->0) =     -523.33706376


--------------------------------------------------------------------------------------------------------




--------------------------------------- Iteration      1(  22)  ---------------------------------------


    POTLOK:  cpu time    1.2414: real time    1.2487
    SETDIJ:  cpu time    0.1953: real time    0.1961
    TRIAL :  cpu time   15.5269: real time   15.6599
    CORREC:  cpu time    6.8706: real time    6.9238
    CHARGE:  cpu time    2.2806: real time    2.3022
    --------------------------------------------
      LOOP:  cpu time   26.1784: real time   26.3951

 eigenvalue-minimisations  :     0
 total energy-change (2. order) :-0.6739283E-06  (-0.2756539E-06)
 number of electron     216.0000000 magnetization 
 augmentation part       -0.5316730 magnetization 

 Free energy of the ion-electron system (eV)
  ---------------------------------------------------
  alpha Z        PSCENC =        59.93625244
  Ewald energy   TEWEN  =     32916.94435984
  -Hartree energ DENC   =    -39970.62924368
  -exchange      EXHF   =         0.00000000
  -V(xc)+E(xc)   XCENC  =       657.71451115
  PAW double counting   =    158667.79675850  -158526.27001606
  entropy T*S    EENTRO =        -0.00000000
  eigenvalues    EBANDS =     -2698.35327573
  atomic energy  EATOM  =      8369.52358910
  ---------------------------------------------------
  free energy    TOTEN  =      -523.33706443 eV

  energy without entropy =     -523.33706443  energy(sigma->0) =     -523.33706443


--------------------------------------------------------------------------------------------------------




--------------------------------------- Iteration      1(  23)  ---------------------------------------


    POTLOK:  cpu time    1.2459: real time    1.2532
    SETDIJ:  cpu time    0.1894: real time    0.1901
    TRIAL :  cpu time   15.5609: real time   15.6761
    CORREC:  cpu time    6.8780: real time    6.9259
    CHARGE:  cpu time    2.2784: real time    2.2960
    --------------------------------------------
      LOOP:  cpu time   26.1955: real time   26.3877

 eigenvalue-minimisations  :     0
 total energy-change (2. order) :-0.2496236E-06  (-0.1644590E-06)
 number of electron     216.0000000 magnetization 
 augmentation part       -0.5316732 magnetization 

 Free energy of the ion-electron system (eV)
  ---------------------------------------------------
  alpha Z        PSCENC =        59.93625244
  Ewald energy   TEWEN  =     32916.94435984
  -Hartree energ DENC   =    -39970.62582523
  -exchange      EXHF   =         0.00000000
  -V(xc)+E(xc)   XCENC  =       657.71447122
  PAW double counting   =    158671.00270847  -158529.47603780
  entropy T*S    EENTRO =        -0.00000000
  eigenvalues    EBANDS =     -2698.35658272
  atomic energy  EATOM  =      8369.52358910
  ---------------------------------------------------
  free energy    TOTEN  =      -523.33706468 eV

  energy without entropy =     -523.33706468  energy(sigma->0) =     -523.33706468


--------------------------------------------------------------------------------------------------------




--------------------------------------- Iteration      1(  24)  ---------------------------------------


    POTLOK:  cpu time    1.2453: real time    1.2524
    SETDIJ:  cpu time    0.1874: real time    0.1884
    TRIAL :  cpu time   15.5494: real time   15.6646
    CORREC:  cpu time    6.8826: real time    6.9287
    CHARGE:  cpu time    2.2847: real time    2.3009
    --------------------------------------------
      LOOP:  cpu time   26.2091: real time   26.3990

 eigenvalue-minimisations  :     0
 total energy-change (2. order) :-0.5785841E-07  (-0.1538487E-06)
 number of electron     216.0000000 magnetization 
 augmentation part       -0.5316729 magnetization 

 Free energy of the ion-electron system (eV)
  ---------------------------------------------------
  alpha Z        PSCENC =        59.93625244
  Ewald energy   TEWEN  =     32916.94435984
  -Hartree energ DENC   =    -39970.61897534
  -exchange      EXHF   =         0.00000000
  -V(xc)+E(xc)   XCENC  =       657.71422589
  PAW double counting   =    158673.12910800  -158531.60243588
  entropy T*S    EENTRO =        -0.00000000
  eigenvalues    EBANDS =     -2698.36318879
  atomic energy  EATOM  =      8369.52358910
  ---------------------------------------------------
  free energy    TOTEN  =      -523.33706474 eV

  energy without entropy =     -523.33706474  energy(sigma->0) =     -523.33706474


--------------------------------------------------------------------------------------------------------




--------------------------------------- Iteration      1(  25)  ---------------------------------------


    POTLOK:  cpu time    1.2426: real time    1.2502
    SETDIJ:  cpu time    0.1905: real time    0.1911
    TRIAL :  cpu time   15.5575: real time   15.6762
    CORREC:  cpu time    6.8784: real time    6.9279
    CHARGE:  cpu time    2.2955: real time    2.3121
    --------------------------------------------
      LOOP:  cpu time   26.1927: real time   26.4117

 eigenvalue-minimisations  :     0
 total energy-change (2. order) : 0.1874287E-07  (-0.1342261E-06)
 number of electron     216.0000000 magnetization 
 augmentation part       -0.5316778 magnetization 

 Free energy of the ion-electron system (eV)
  ---------------------------------------------------
  alpha Z        PSCENC =        59.93625244
  Ewald energy   TEWEN  =     32916.94435984
  -Hartree energ DENC   =    -39970.62574052
  -exchange      EXHF   =         0.00000000
  -V(xc)+E(xc)   XCENC  =       657.71463983
  PAW double counting   =    158672.16072281  -158530.63409943
  entropy T*S    EENTRO =        -0.00000000
  eigenvalues    EBANDS =     -2698.35678879
  atomic energy  EATOM  =      8369.52358910
  ---------------------------------------------------
  free energy    TOTEN  =      -523.33706472 eV

  energy without entropy =     -523.33706472  energy(sigma->0) =     -523.33706472


--------------------------------------------------------------------------------------------------------




--------------------------------------- Iteration      1(  26)  ---------------------------------------


    POTLOK:  cpu time    1.2483: real time    1.2556
    SETDIJ:  cpu time    0.1857: real time    0.1862
    TRIAL :  cpu time   15.5530: real time   15.6651
    CORREC:  cpu time    6.7835: real time    6.8315
    CHARGE:  cpu time    2.2943: real time    2.3111
    --------------------------------------------
      LOOP:  cpu time   26.1034: real time   26.2939

 eigenvalue-minimisations  :     0
 total energy-change (2. order) :-0.1201988E-06  ( 0.8020731E-08)
 number of electron     216.0000000 magnetization 
 augmentation part       -0.5316764 magnetization 

 Free energy of the ion-electron system (eV)
  ---------------------------------------------------
  alpha Z        PSCENC =        59.93625244
  Ewald energy   TEWEN  =     32916.94435984
  -Hartree energ DENC   =    -39970.61969072
  -exchange      EXHF   =         0.00000000
  -V(xc)+E(xc)   XCENC  =       657.71424157
  PAW double counting   =    158672.03455492  -158530.50785994
  entropy T*S    EENTRO =        -0.00000000
  eigenvalues    EBANDS =     -2698.36251206
  atomic energy  EATOM  =      8369.52358910
  ---------------------------------------------------
  free energy    TOTEN  =      -523.33706484 eV

  energy without entropy =     -523.33706484  energy(sigma->0) =     -523.33706484


--------------------------------------------------------------------------------------------------------




--------------------------------------- Iteration      1(  27)  ---------------------------------------


    POTLOK:  cpu time    1.2462: real time    1.2536
    SETDIJ:  cpu time    0.1883: real time    0.1889
    TRIAL :  cpu time   15.5116: real time   15.6410
    CORREC:  cpu time    6.7831: real time    6.8318
    EDDIAG:  cpu time    3.2075: real time    3.2317
    CHARGE:  cpu time    2.2847: real time    2.3014
    --------------------------------------------
      LOOP:  cpu time   29.2562: real time   29.4850

 eigenvalue-minimisations  :     0
 total energy-change (2. order) :-0.1411536E-07  ( 0.9788017E-10)
 number of electron     216.0000000 magnetization 
 augmentation part       -0.5316769 magnetization 

 Free energy of the ion-electron system (eV)
  ---------------------------------------------------
  alpha Z        PSCENC =        59.93625244
  Ewald energy   TEWEN  =     32916.94435984
  -Hartree energ DENC   =    -39970.62180551
  -exchange      EXHF   =         0.00000000
  -V(xc)+E(xc)   XCENC  =       657.71437727
  PAW double counting   =    158671.80625753  -158530.27958275
  entropy T*S    EENTRO =        -0.00000000
  eigenvalues    EBANDS =     -2698.36051278
  atomic energy  EATOM  =      8369.52358910
  ---------------------------------------------------
  free energy    TOTEN  =      -523.33706486 eV

  energy without entropy =     -523.33706486  energy(sigma->0) =     -523.33706486


--------------------------------------------------------------------------------------------------------


  average scaling for gradient   0.8027


 average (electrostatic) potential at core
  the test charge radii are     0.5770  0.5955
  (the norm of the test charge is              1.0000)
       1 -87.6347       2 -87.6324       3 -87.6379       4 -87.6428       5 -87.6297
       6 -87.6280       7 -87.6371       8 -87.6315       9 -87.6315      10 -87.6367
      11 -87.6287      12 -87.6304      13 -87.6362      14 -87.6310      15 -87.6277
      16 -87.6286      17 -87.6312      18 -87.6329      19 -87.6342      20 -87.6312
      21 -87.6272      22 -87.6269      23 -87.6453      24 -87.6445      25 -87.6281
      26 -87.6295      27 -87.6322      28 -87.6364      29 -87.6280      30 -87.6282
      31 -87.6402      32 -87.6360      33 -87.6310      34 -87.6292      35 -87.6288
      36 -87.6302      37 -87.6320      38 -87.6336      39 -87.6339      40 -87.6331
      41 -87.6333      42 -87.6349      43 -87.6311      44 -87.6347      45 -87.6281
      46 -87.6283      47 -87.6302      48 -87.6288      49 -87.6332      50 -87.6317
      51 -91.5270      52-123.9099      53-123.9101
 
 
 
 E-fermi :  -4.0810     XC(G=0):  -2.3346     alpha+bet : -2.1113

 Fermi energy:        -4.0809528825

 k-point     1 :       0.0000    0.0000    0.0000
  band No.  band energies     occupation 
      1     -28.8045      2.00000
      2     -27.6965      2.00000
      3     -23.3389      2.00000
      4     -22.3493      2.00000
      5     -22.3475      2.00000
      6     -22.3450      2.00000
      7     -22.3442      2.00000
      8     -22.3425      2.00000
      9     -22.3424      2.00000
     10     -20.3996      2.00000
     11     -20.3995      2.00000
     12     -20.3990      2.00000
     13     -20.3984      2.00000
     14     -20.3981      2.00000
     15     -20.3979      2.00000
     16     -19.4567      2.00000
     17     -19.4562      2.00000
     18     -19.4560      2.00000
     19     -19.4559      2.00000
     20     -19.4556      2.00000
     21     -19.4550      2.00000
     22     -17.2166      2.00000
     23     -17.2164      2.00000
     24     -17.2160      2.00000
     25     -17.2153      2.00000
     26     -17.2132      2.00000
     27     -17.2130      2.00000
     28     -16.0479      2.00000
     29     -16.0477      2.00000
     30     -16.0468      2.00000
     31     -16.0467      2.00000
     32     -16.0462      2.00000
     33     -16.0461      2.00000
     34     -14.6409      2.00000
     35     -14.6408      2.00000
     36     -14.6404      2.00000
     37     -14.6401      2.00000
     38     -14.6401      2.00000
     39     -14.6392      2.00000
     40     -12.8657      2.00000
     41     -12.1488      2.00000
     42     -12.1487      2.00000
     43     -12.1481      2.00000
     44     -12.1481      2.00000
     45     -12.1475      2.00000
     46     -12.1474      2.00000
     47     -11.9423      2.00000
     48     -11.9423      2.00000
     49     -11.9410      2.00000
     50     -11.9410      2.00000
     51     -11.9394      2.00000
     52     -11.9391      2.00000
     53     -11.5211      2.00000
     54     -11.3274      2.00000
     55     -11.3245      2.00000
     56     -10.6314      2.00000
     57     -10.4786      2.00000
     58     -10.4785      2.00000
     59     -10.4775      2.00000
     60     -10.4773      2.00000
     61     -10.4768      2.00000
     62     -10.4767      2.00000
     63      -9.4616      2.00000
     64      -9.4584      2.00000
     65      -9.4534      2.00000
     66      -9.4531      2.00000
     67      -9.4503      2.00000
     68      -9.4499      2.00000
     69      -9.1483      2.00000
     70      -9.1467      2.00000
     71      -9.1464      2.00000
     72      -9.1449      2.00000
     73      -9.1449      2.00000
     74      -9.1447      2.00000
     75      -9.1409      2.00000
     76      -9.1408      2.00000
     77      -9.1405      2.00000
     78      -9.1397      2.00000
     79      -9.1390      2.00000
     80      -9.1384      2.00000
     81      -7.6898      2.00000
     82      -7.6880      2.00000
     83      -7.4020      2.00000
     84      -7.4016      2.00000
     85      -7.4011      2.00000
     86      -7.4008      2.00000
     87      -7.3982      2.00000
     88      -7.3982      2.00000
     89      -7.2100      2.00000
     90      -7.2095      2.00000
     91      -7.2061      2.00000
     92      -7.2051      2.00000
     93      -7.2049      2.00000
     94      -7.2046      2.00000
     95      -6.2647      2.00000
     96      -6.2630      2.00000
     97      -6.2625      2.00000
     98      -6.2602      2.00000
     99      -6.2598      2.00000
    100      -6.2591      2.00000
    101      -5.8303      2.00000
    102      -5.8280      2.00000
    103      -4.1647      2.00000
    104      -4.1640      2.00000
    105      -4.1628      2.00000
    106      -4.1621      2.00000
    107      -4.1587      2.00000
    108      -4.1585      2.00000
    109      -1.1713      0.00000
    110      -1.1710      0.00000
    111      -1.1676      0.00000
    112      -1.1674      0.00000
    113      -1.1665      0.00000
    114      -1.1661      0.00000
    115       0.8199      0.00000
    116       0.8208      0.00000
    117       0.8219      0.00000
    118       0.8244      0.00000
    119       0.8249      0.00000
    120       0.8280      0.00000
    121       0.8986      0.00000
    122       1.4844      0.00000
    123       1.5279      0.00000
    124       1.5308      0.00000
    125       1.9400      0.00000
    126       2.0770      0.00000
    127       2.3104      0.00000
    128       2.3876      0.00000
    129       2.3943      0.00000
    130       2.3980      0.00000
    131       2.4181      0.00000
    132       2.6880      0.00000
    133       2.6887      0.00000
    134       2.6916      0.00000
    135       2.6925      0.00000
    136       2.6926      0.00000
    137       2.6928      0.00000
    138       2.7605      0.00000
    139       2.9396      0.00000
    140       3.0204      0.00000
    141       3.1129      0.00000
    142       3.1270      0.00000
    143       3.1290      0.00000
    144       3.1567      0.00000
    145       3.2264      0.00000
    146       3.2265      0.00000
    147       3.2595      0.00000
    148       3.2777      0.00000
    149       3.2829      0.00000
    150       3.3427      0.00000
    151       3.3493      0.00000
    152       4.4688      0.00000
    153       4.7553      0.00000
    154       4.8211      0.00000
    155       4.9146      0.00000
    156       4.9502      0.00000
    157       5.0414      0.00000
    158       5.0661      0.00000
    159       5.1711      0.00000
    160       5.2152      0.00000
    161       5.2165      0.00000
    162       5.2196      0.00000
    163       5.2209      0.00000
    164       5.2210      0.00000
    165       5.2224      0.00000
    166       5.2454      0.00000
    167       5.2872      0.00000
    168       5.3838      0.00000


--------------------------------------------------------------------------------------------------------


 soft charge-density along one line, spin component           1
         0         1         2         3         4         5         6         7         8         9
 total charge-density along one line
 
 pseudopotential strength for first ion, spin component:           1
 12.626  21.244  -0.000   0.000   0.000  -0.000   0.000   0.000
 21.244  35.746  -0.000   0.000   0.000  -0.000   0.000   0.000
 -0.000  -0.000  -3.230  -0.000   0.000  -5.784   0.000   0.000
  0.000   0.000  -0.000  -3.230  -0.000   0.000  -5.784  -0.000
  0.000   0.000   0.000  -0.000  -3.230   0.000  -0.000  -5.784
 -0.000  -0.000  -5.784   0.000   0.000 -10.337   0.000   0.000
  0.000   0.000   0.000  -5.784  -0.000   0.000 -10.335  -0.000
  0.000   0.000   0.000  -0.000  -5.784   0.000  -0.000 -10.337
 total augmentation occupancy for first ion, spin component:           1
 10.264  -3.894  -0.000  -0.002   0.000   0.000   0.001  -0.000
 -3.894   1.507   0.000   0.001  -0.000  -0.000  -0.000   0.000
 -0.000   0.000   8.468  -0.009   0.000  -3.024   0.004  -0.000
 -0.002   0.001  -0.009   4.016  -0.000   0.004  -1.207   0.000
  0.000  -0.000   0.000  -0.000   8.468  -0.000   0.000  -3.024
  0.000  -0.000  -3.024   0.004  -0.000   1.093  -0.001   0.000
  0.001  -0.000   0.004  -1.207   0.000  -0.001   0.368  -0.000
 -0.000   0.000  -0.000   0.000  -3.024   0.000  -0.000   1.093


------------------------ aborting loop because EDIFF is reached ----------------------------------------


    FORLOC:  cpu time    0.1044: real time    0.1051
    FORNL :  cpu time    2.8781: real time    2.9015
    FORCOR:  cpu time    1.2581: real time    1.2656
    OFIELD:  cpu time    0.0022: real time    0.0023

 VOLUME and BASIS-vectors are now :
 -----------------------------------------------------------------------------
  energy-cutoff  :     1000.00
  volume of cell :     2631.08
      direct lattice vectors                 reciprocal lattice vectors
    12.325000000  0.000000000  0.000000000     0.081135903  0.046843835  0.000000000
    -6.162500000 10.673763102  0.000000000     0.000000000  0.093687670  0.000000000
     0.000000000  0.000000000 20.000000000     0.000000000  0.000000000  0.050000000

  length of vectors
    12.325000000 12.325000000 20.000000000     0.093687670  0.093687670  0.050000000


 FORCES acting on ions:
    Electron-Ion                     Ewald-Force                    Non-Local-Force
 -----------------------------------------------------------------------------------------------
   0.673E+01 0.587E+01 0.217E+02   -.674E+01 -.587E+01 -.217E+02   0.111E-01 -.208E-02 0.874E-02
   0.103E+02 0.503E+01 0.267E+02   -.103E+02 -.502E+01 -.267E+02   0.149E-01 -.700E-02 -.770E-02
   0.468E+01 0.123E+02 0.312E+02   -.468E+01 -.123E+02 -.312E+02   -.164E-02 0.275E-01 0.130E-01
   0.663E+01 0.963E+01 0.436E+02   -.665E+01 -.964E+01 -.436E+02   0.266E-01 0.831E-02 0.243E-01
   0.723E+01 0.170E+01 0.219E+02   -.723E+01 -.170E+01 -.219E+02   0.426E-02 -.115E-01 -.331E-02
   0.748E+01 -.138E+01 0.222E+02   -.748E+01 0.138E+01 -.222E+02   -.937E-02 0.188E-03 -.127E-01
   0.121E+02 0.455E+01 0.393E+02   -.121E+02 -.453E+01 -.393E+02   0.316E-01 -.317E-01 0.211E-02
   0.117E+02 -.413E+01 0.410E+02   -.117E+02 0.415E+01 -.409E+02   0.905E-02 -.173E-01 -.190E-01
   -.543E+01 0.111E+02 0.314E+02   0.544E+01 -.111E+02 -.314E+02   -.118E-01 -.358E-02 -.153E-01
   -.882E+01 0.744E+01 0.421E+02   0.885E+01 -.747E+01 -.421E+02   -.491E-01 0.302E-01 0.611E-02
   0.184E+01 -.172E+01 0.183E+02   -.183E+01 0.172E+01 -.183E+02   -.183E-03 -.698E-03 -.484E-02
   0.153E+01 -.126E+01 0.172E+02   -.152E+01 0.126E+01 -.172E+02   -.122E-01 0.536E-02 0.256E-02
   0.468E+01 -.103E+02 0.451E+02   -.471E+01 0.103E+02 -.451E+02   0.505E-01 -.227E-01 0.162E-02
   0.244E+01 -.123E+02 0.320E+02   -.246E+01 0.123E+02 -.320E+02   0.155E-01 -.197E-02 -.252E-01
   -.647E+01 0.403E+01 0.212E+02   0.647E+01 -.403E+01 -.212E+02   0.918E-02 -.448E-02 -.309E-02
   -.917E+01 0.267E+01 0.239E+02   0.918E+01 -.267E+01 -.239E+02   -.594E-02 0.103E-01 -.173E-01
   -.107E+01 -.429E+00 0.166E+02   0.108E+01 0.425E+00 -.166E+02   -.530E-02 0.208E-02 0.121E-02
   0.538E+00 0.382E+01 0.175E+02   -.533E+00 -.382E+01 -.175E+02   -.684E-02 0.389E-02 0.942E-02
   -.182E+01 -.110E+02 0.260E+02   0.181E+01 0.110E+02 -.260E+02   0.148E-01 -.722E-02 0.125E-02
   -.880E+00 -.581E+01 0.192E+02   0.872E+00 0.581E+01 -.192E+02   0.500E-02 -.496E-02 -.197E-02
   0.104E+02 -.457E+01 0.284E+02   -.104E+02 0.458E+01 -.283E+02   0.242E-02 -.718E-02 -.350E-01
   0.661E+01 -.560E+01 0.235E+02   -.661E+01 0.560E+01 -.235E+02   -.804E-02 0.760E-02 -.154E-01
   -.227E+01 0.455E+01 0.514E+02   0.228E+01 -.456E+01 -.515E+02   -.229E-01 0.220E-01 0.562E-01
   -.332E+01 -.716E+01 0.499E+02   0.331E+01 0.718E+01 -.499E+02   0.191E-01 -.310E-01 0.395E-01
   0.330E+01 -.138E+01 0.184E+02   -.329E+01 0.138E+01 -.184E+02   -.174E-02 -.498E-03 -.895E-02
   0.676E+00 0.292E+01 0.186E+02   -.671E+00 -.293E+01 -.186E+02   -.104E-01 0.594E-02 0.657E-03
   -.126E+02 0.166E+01 0.338E+02   0.126E+02 -.167E+01 -.338E+02   -.220E-02 0.163E-01 -.116E-01
   -.119E+02 -.486E+01 0.316E+02   0.119E+02 0.485E+01 -.316E+02   -.239E-01 0.167E-01 0.569E-02
   0.398E+01 -.803E+01 0.244E+02   -.399E+01 0.803E+01 -.244E+02   0.110E-01 0.214E-02 -.188E-01
   0.362E+00 -.320E+01 0.195E+02   -.368E+00 0.320E+01 -.195E+02   -.166E-02 0.419E-02 -.856E-02
   -.914E+01 -.967E+01 0.372E+02   0.916E+01 0.969E+01 -.373E+02   -.263E-01 -.163E-01 0.121E-01
   -.578E+01 -.106E+02 0.273E+02   0.578E+01 0.106E+02 -.273E+02   0.745E-03 -.136E-01 0.104E-01
   0.414E+00 0.165E+01 0.171E+02   -.419E+00 -.165E+01 -.171E+02   0.987E-02 -.694E-02 0.460E-02
   0.111E+01 0.165E+01 0.183E+02   -.112E+01 -.164E+01 -.183E+02   -.356E-03 0.183E-02 -.522E-02
   -.455E+01 0.643E+00 0.197E+02   0.455E+01 -.647E+00 -.197E+02   0.521E-02 -.482E-03 -.388E-03
   -.397E+01 -.163E+01 0.192E+02   0.398E+01 0.163E+01 -.192E+02   -.916E-02 0.568E-02 -.618E-03
   -.788E+01 -.409E+01 0.220E+02   0.790E+01 0.409E+01 -.220E+02   -.105E-01 0.268E-02 0.204E-02
   -.479E+01 -.385E+01 0.189E+02   0.480E+01 0.385E+01 -.190E+02   -.903E-02 0.208E-02 0.103E-01
   -.443E+01 -.575E+01 0.201E+02   0.444E+01 0.575E+01 -.202E+02   -.798E-02 -.316E-02 0.782E-02
   -.665E+00 -.142E+01 0.176E+02   0.665E+00 0.143E+01 -.176E+02   0.295E-02 -.116E-02 0.885E-02
   0.166E+01 0.407E+01 0.182E+02   -.166E+01 -.407E+01 -.182E+02   -.489E-02 0.616E-02 0.870E-02
   0.531E+01 0.832E+01 0.228E+02   -.532E+01 -.833E+01 -.228E+02   0.563E-02 0.496E-02 0.128E-01
   0.446E+00 0.704E+01 0.198E+02   -.436E+00 -.704E+01 -.199E+02   -.590E-02 0.632E-02 -.139E-03
   -.692E-01 0.119E+02 0.276E+02   0.843E-01 -.119E+02 -.276E+02   -.194E-01 0.964E-02 0.516E-02
   -.133E+01 0.260E+01 0.194E+02   0.133E+01 -.260E+01 -.194E+02   0.221E-02 -.382E-02 -.521E-02
   -.537E+01 0.670E+01 0.231E+02   0.537E+01 -.670E+01 -.231E+02   -.116E-01 0.204E-02 -.132E-01
   -.105E+01 -.283E+01 0.182E+02   0.104E+01 0.283E+01 -.182E+02   0.115E-01 -.276E-02 0.230E-02
   -.259E+01 0.102E+01 0.174E+02   0.259E+01 -.102E+01 -.174E+02   0.138E-02 0.179E-02 -.757E-02
   0.238E+00 -.177E+01 0.173E+02   -.241E+00 0.177E+01 -.173E+02   0.734E-02 -.418E-02 0.635E-02
   0.279E+01 0.202E+01 0.175E+02   -.280E+01 -.202E+01 -.175E+02   0.528E-02 0.950E-03 0.322E-02
   0.526E-01 -.322E-01 -.318E+03   -.513E-01 0.323E-01 0.318E+03   -.410E-02 0.258E-02 -.169E-01
   -.228E+03 0.155E+03 -.489E+03   0.279E+03 -.190E+03 0.492E+03   -.523E+02 0.356E+02 -.350E+01
   0.228E+03 -.155E+03 -.469E+03   -.279E+03 0.190E+03 0.466E+03   0.523E+02 -.356E+02 0.316E+01
 -----------------------------------------------------------------------------------------------
   0.527E-03 0.900E-02 0.336E+00   0.568E-13 0.284E-13 0.114E-12   -.985E-03 -.945E-02 -.325E+00
 
 
 POSITION                                       TOTAL-FORCE (eV/Angst)
 -----------------------------------------------------------------------------------
     11.98348      0.00342      0.01417         0.002902     -0.000761     -0.001866
     -0.34154      1.42665      0.01100        -0.002937     -0.000336     -0.003198
      2.12355      0.00315      0.01249        -0.001197      0.004645     -0.005905
      2.12326      1.42653      0.00641         0.007031     -0.001505     -0.002082
     10.75099      2.13819      0.01213         0.000844     -0.004841     -0.000067
     -1.57382      3.56123      0.01110        -0.007054      0.005279     -0.001618
      0.89078      2.13854      0.00548         0.004474     -0.013894      0.005168
      0.89099      3.56147      0.00181        -0.014025     -0.000166      0.015019
      4.58864      0.00346      0.01135         0.004919     -0.016629     -0.003098
      4.58894      1.42623      0.00646        -0.014752      0.008174      0.018131
      9.51854      4.27281      0.01369         0.007527     -0.003824     -0.000011
     -2.80632      5.69591      0.01434        -0.006841      0.003337      0.000715
      2.12300      4.27302      0.00000         0.016080     -0.001071      0.025753
      2.12335      5.69594      0.00581        -0.002019      0.010035     -0.001306
      7.05344      0.00333      0.01399         0.008017     -0.004675     -0.000636
      7.05353      1.42635      0.01368        -0.001955      0.004358     -0.003876
      8.28610      6.40752      0.01601         0.003700     -0.001315     -0.001089
     -4.03885      7.83070      0.01636        -0.002033      0.001328     -0.000582
      3.35586      6.40753      0.01007         0.003145      0.000490     -0.001613
      3.35599      7.83072      0.01320        -0.003264      0.000923     -0.000700
     -0.34146      4.27290      0.00723        -0.001050     -0.001145     -0.003645
     -0.34138      5.69591      0.00946        -0.008228      0.004718     -0.001053
      3.35624      2.13791      0.00222        -0.008769      0.007185      0.027811
      3.35573      3.56155      0.00139         0.010384     -0.009708      0.018826
     -1.57395      6.40758      0.01311         0.007207     -0.004259     -0.000764
     -1.57385      7.83068      0.01438        -0.004978      0.004097     -0.000204
      5.82093      2.13784      0.01033         0.017110      0.003265     -0.002408
      5.82114      3.56097      0.01156        -0.003229      0.005492     -0.003602
      0.89092      6.40755      0.00907         0.004057      0.001255     -0.001825
      0.89106      7.83068      0.01235        -0.007348      0.002731      0.000076
      4.58871      4.27293      0.00850        -0.006658     -0.003201     -0.008040
      4.58852      5.69606      0.01149         0.002123      0.002129     -0.004080
      9.51845      0.00337      0.01490         0.004880     -0.004957     -0.000022
      9.51855      1.42644      0.01438        -0.005065      0.006430     -0.000588
      8.28593      2.13803      0.01453         0.005463     -0.004203      0.000156
      8.28613      3.56115      0.01464        -0.004500      0.001734     -0.000161
      7.05356      4.27269      0.01457         0.004110     -0.000559     -0.000985
      7.05362      5.69588      0.01553        -0.002364      0.000861     -0.000570
      5.82112      6.40755      0.01489        -0.002152      0.002372     -0.000526
      5.82102      7.83073      0.01579         0.002828      0.000677     -0.000663
      7.05363      8.54227      0.01631        -0.004456      0.000644      0.000740
     -5.27149      9.96549      0.01495        -0.001038     -0.002884     -0.002940
     -2.80638      8.54234      0.01558         0.003512     -0.002147     -0.001524
     -2.80627      9.96553      0.01362        -0.004176     -0.000141     -0.004683
     -0.34149      8.54239      0.01378         0.005916     -0.003809      0.000056
     -0.34138      9.96550      0.01354        -0.005682      0.001113     -0.001368
      2.12343      8.54232      0.01336         0.005784     -0.001817      0.000829
      2.12354      9.96544      0.01469        -0.006444      0.004694     -0.002296
      4.58846      8.54235      0.01505         0.003554     -0.002976      0.000718
      4.58853      9.96550      0.01517        -0.003418      0.003414      0.000002
      3.04930      2.68154      4.20448        -0.002744      0.002664      0.010852
      4.02070      2.02068      4.26890        -1.417632      0.964378     -0.116562
      2.07767      3.34267      4.14503         1.420441     -0.967600      0.061305
 -----------------------------------------------------------------------------------
    total drift:                               -0.000457     -0.000448      0.011213


--------------------------------------------------------------------------------------------------------



  FREE ENERGIE OF THE ION-ELECTRON SYSTEM (eV)
  ---------------------------------------------------
  free  energy   TOTEN  =      -523.33706486 eV

  energy  without entropy=     -523.33706486  energy(sigma->0) =     -523.33706486
 


--------------------------------------------------------------------------------------------------------


    POTLOK:  cpu time    1.4371: real time    1.4451


--------------------------------------------------------------------------------------------------------


 writing wavefunctions
     LOOP+:  cpu time  738.1534: real time  744.2800
    4ORBIT:  cpu time    0.0000: real time    0.0000

 total amount of memory used by VASP MPI-rank0   556209. kBytes
=======================================================================

   base      :      30000. kBytes
   nonl-proj :     184518. kBytes
   fftplans  :      31725. kBytes
   grid      :     282516. kBytes
   one-center:        162. kBytes
   wavefun   :      27288. kBytes
 
  
  
 General timing and accounting informations for this job:
 ========================================================
  
                  Total CPU time used (sec):      776.461
                            User time (sec):      755.168
                          System time (sec):       21.293
                         Elapsed time (sec):      783.869
  
                   Maximum memory used (kb):     1032920.
                   Average memory used (kb):          N/A
  
                          Minor page faults:       211921
                          Major page faults:           61
                 Voluntary context switches:         3777
