 vasp.6.2.1 16May21 (build Nov 06 2021 14:46:37) complex                        
  
 executed on             LinuxIFC date 2025.04.16  19:00:20
 running on  112 total cores
 distrk:  each k-point on   56 cores,    2 groups
 distr:  one band on NCORE=   1 cores,   56 groups


--------------------------------------------------------------------------------------------------------


 INCAR:
   ALGO = Conjugate
   KPAR = 2
   NCORE = 32
   ISMEAR = 0
   SIGMA = 0.01
   PREC = Accurate
   EDIFF = 1E-7
   ENCUT = 1000
   ISIF = 0
   METAGGA = R2SCAN
   LASPH = .TRUE.
   SYMPREC = 1E-7

 POTCAR:    PAW_PBE C_h 06Feb2004                 
 POTCAR:    PAW_PBE O_h 06Feb2004                 
 -----------------------------------------------------------------------------
|                                                                             |
|           W    W    AA    RRRRR   N    N  II  N    N   GGGG   !!!           |
|           W    W   A  A   R    R  NN   N  II  NN   N  G    G  !!!           |
|           W    W  A    A  R    R  N N  N  II  N N  N  G       !!!           |
|           W WW W  AAAAAA  RRRRR   N  N N  II  N  N N  G  GGG   !            |
|           WW  WW  A    A  R   R   N   NN  II  N   NN  G    G                |
|           W    W  A    A  R    R  N    N  II  N    N   GGGG   !!!           |
|                                                                             |
|     The value NCORE = 32 specified in the INCAR file was overwritten,       |
|     because it was not compatible with the 56 processes available:          |
|     NCORE = 1                                                               |
|     was used instead, please check that this makes sense for your           |
|     machine.                                                                |
|                                                                             |
 -----------------------------------------------------------------------------

 -----------------------------------------------------------------------------
|                                                                             |
|           W    W    AA    RRRRR   N    N  II  N    N   GGGG   !!!           |
|           W    W   A  A   R    R  NN   N  II  NN   N  G    G  !!!           |
|           W    W  A    A  R    R  N N  N  II  N N  N  G       !!!           |
|           W WW W  AAAAAA  RRRRR   N  N N  II  N  N N  G  GGG   !            |
|           WW  WW  A    A  R   R   N   NN  II  N   NN  G    G                |
|           W    W  A    A  R    R  N    N  II  N    N   GGGG   !!!           |
|                                                                             |
|     For optimal performance we recommend to set                             |
|       NCORE = 2 up to number-of-cores-per-socket                            |
|     NCORE specifies how many cores store one orbital (NPAR=cpu/NCORE).      |
|     This setting can greatly improve the performance of VASP for DFT.       |
|     The default, NCORE=1 might be grossly inefficient on modern             |
|     multi-core architectures or massively parallel machines. Do your        |
|     own testing! More info at https://www.vasp.at/wiki/index.php/NCORE      |
|     Unfortunately you need to use the default for GW and RPA                |
|     calculations (for HF NCORE is supported but not extensively tested      |
|     yet).                                                                   |
|                                                                             |
 -----------------------------------------------------------------------------

 POTCAR:    PAW_PBE C_h 06Feb2004                 
   VRHFIN =C: s2p2                                                                                  
   LEXCH  = PE                                                                                      
   EATOM  =   147.1560 eV,   10.8157 Ry                                                             
                                                                                                    
   TITEL  = PAW_PBE C_h 06Feb2004                                                                   
   LULTRA =        F    use ultrasoft PP ?                                                          
   IUNSCR =        1    unscreen: 0-lin 1-nonlin 2-no                                               
   RPACOR =    0.800    partial core radius                                                         
   POMASS =   12.011; ZVAL   =    4.000    mass and valenz                                          
   RCORE  =    1.100    outmost cutoff radius                                                       
   RWIGS  =    1.630; RWIGS  =    0.863    wigner-seitz radius (au A)                               
   ENMAX  =  700.000; ENMIN  =  500.000 eV                                                          
   ICORE  =        2    local potential                                                             
   LCOR   =        T    correct aug charges                                                         
   LPAW   =        T    paw PP                                                                      
   EAUG   =  946.768                                                                                
   DEXC   =    0.000                                                                                
   RMAX   =    1.128    core radius for proj-oper                                                   
   RAUG   =    1.300    factor for augmentation sphere                                              
   RDEP   =    1.162    radius for radial grids                                                     
   RDEPT  =    1.088    core radius for aug-charge                                                  
                                                                                                    
   Atomic configuration                                                                             
    4 entries                                                                                       
     n  l   j            E        occ.                                                              
     1  0  0.50      -273.3789   2.0000                                                             
     2  0  0.50       -13.7508   2.0000                                                             
     2  1  0.50        -5.2854   2.0000                                                             
     3  2  1.50        -5.4423   0.0000                                                             
   Description                                                                                      
     l       E           TYP  RCUT    TYP  RCUT                                                     
     0    -13.7508458     23  1.100                                                                 
     0     -8.2022199     23  1.100                                                                 
     1     -5.2854383     23  1.100                                                                 
     1      1.1560700     23  1.100                                                                 
     2     -5.4423304      7  1.100                                                                 
  local pseudopotential read in
  partial core-charges read in
  partial kinetic energy density read in
  atomic valenz-charges read in
  non local Contribution for L=           0  read in
    real space projection operators read in
  non local Contribution for L=           0  read in
    real space projection operators read in
  non local Contribution for L=           1  read in
    real space projection operators read in
  non local Contribution for L=           1  read in
    real space projection operators read in
    PAW grid and wavefunctions read in
 
   number of l-projection  operators is LMAX  =           4
   number of lm-projection operators is LMMAX =           8
 
 POTCAR:    PAW_PBE O_h 06Feb2004                 
   VRHFIN =O: s2p4                                                                                  
   LEXCH  = PE                                                                                      
   EATOM  =   432.3788 eV,   31.7789 Ry                                                             
                                                                                                    
   TITEL  = PAW_PBE O_h 06Feb2004                                                                   
   LULTRA =        F    use ultrasoft PP ?                                                          
   IUNSCR =        1    unscreen: 0-lin 1-nonlin 2-no                                               
   RPACOR =    0.800    partial core radius                                                         
   POMASS =   16.000; ZVAL   =    6.000    mass and valenz                                          
   RCORE  =    1.100    outmost cutoff radius                                                       
   RWIGS  =    1.400; RWIGS  =    0.741    wigner-seitz radius (au A)                               
   ENMAX  =  700.000; ENMIN  =  500.000 eV                                                          
   ICORE  =        2    local potential                                                             
   LCOR   =        T    correct aug charges                                                         
   LPAW   =        T    paw PP                                                                      
   EAUG   =  888.804                                                                                
   DEXC   =    0.000                                                                                
   RMAX   =    1.128    core radius for proj-oper                                                   
   RAUG   =    1.300    factor for augmentation sphere                                              
   RDEP   =    1.125    radius for radial grids                                                     
   RDEPT  =    1.088    core radius for aug-charge                                                  
                                                                                                    
   Atomic configuration                                                                             
    4 entries                                                                                       
     n  l   j            E        occ.                                                              
     1  0  0.50      -514.6923   2.0000                                                             
     2  0  0.50       -23.9615   2.0000                                                             
     2  1  0.50        -9.0305   4.0000                                                             
     3  2  1.50        -9.5241   0.0000                                                             
   Description                                                                                      
     l       E           TYP  RCUT    TYP  RCUT                                                     
     0    -23.9615319     23  1.100                                                                 
     0    -25.3221145     23  1.100                                                                 
     1     -9.0304911     23  1.100                                                                 
     1     -5.4802209     23  1.100                                                                 
     2     -9.5240782      7  1.100                                                                 
  local pseudopotential read in
  partial core-charges read in
  partial kinetic energy density read in
  atomic valenz-charges read in
  non local Contribution for L=           0  read in
    real space projection operators read in
  non local Contribution for L=           0  read in
    real space projection operators read in
  non local Contribution for L=           1  read in
    real space projection operators read in
  non local Contribution for L=           1  read in
    real space projection operators read in
    PAW grid and wavefunctions read in
 
   number of l-projection  operators is LMAX  =           4
   number of lm-projection operators is LMMAX =           8
 
 -----------------------------------------------------------------------------
|                                                                             |
|               ----> ADVICE to this user running VASP <----                  |
|                                                                             |
|     You have a (more or less) 'large supercell' and for larger cells it     |
|     might be more efficient to use real-space projection operators.         |
|     Therefore, try LREAL= Auto in the INCAR file.                           |
|     Mind: For very accurate calculation, you might also keep the            |
|     reciprocal projection scheme (i.e. LREAL=.FALSE.).                      |
|                                                                             |
 -----------------------------------------------------------------------------

  PAW_PBE C_h 06Feb2004                 :
 energy of atom  1       EATOM= -147.1560
 kinetic energy error for atom=    0.0031 (will be added to EATOM!!)
  PAW_PBE O_h 06Feb2004                 :
 energy of atom  2       EATOM= -432.3788
 kinetic energy error for atom=    0.0171 (will be added to EATOM!!)
 
 
 POSCAR:  C  O
  positions in cartesian coordinates
  No initial velocities read in

 METAGGA = R2SCA    LMAXTAU =  6    LMIXTAU =  F

 exchange correlation table for  LEXCH =        8
   RHO(1)=    0.500       N(1)  =     2000
   RHO(2)=  100.500       N(2)  =     4000
 


--------------------------------------------------------------------------------------------------------


 ion  position               nearest neighbor table
   1  0.972  0.000  0.001-  50 1.42   2 1.42  42 1.42
   2  0.039  0.134  0.000-   5 1.42   7 1.42   1 1.42
   3  0.172  0.000  0.000-  42 1.42  44 1.42   4 1.42
   4  0.239  0.134  0.000-   7 1.42   3 1.42  23 1.42
   5  0.972  0.200  0.000-   6 1.42   2 1.42  34 1.42
   6  0.039  0.334  0.000-   5 1.42  21 1.42  11 1.42
   7  0.172  0.200  0.000-   8 1.42   2 1.42   4 1.42
   8  0.239  0.334  0.000-  13 1.42   7 1.42  21 1.42
   9  0.372  0.000  0.000-  10 1.42  44 1.42  46 1.42
  10  0.439  0.134  0.000-  27 1.42   9 1.42  23 1.42
  11  0.972  0.400  0.001-  12 1.42  36 1.42   6 1.42
  12  0.039  0.534  0.001-  25 1.42  11 1.42  17 1.42
  13  0.372  0.400  0.000-   8 1.42  14 1.42  24 1.42
  14  0.439  0.534  0.000-  13 1.42  29 1.42  19 1.42
  15  0.572  0.000  0.001-  46 1.42  16 1.42  48 1.42
  16  0.639  0.134  0.001-  15 1.42  35 1.42  27 1.42
  17  0.972  0.600  0.001-  38 1.42  18 1.42  12 1.42
  18  0.039  0.734  0.001-  43 1.42  41 1.42  17 1.42
  19  0.572  0.600  0.000-  14 1.42  20 1.42  32 1.42
  20  0.639  0.734  0.001-  49 1.42  19 1.42  47 1.42
  21  0.172  0.400  0.000-  22 1.42   8 1.42   6 1.42
  22  0.239  0.534  0.000-  21 1.42  29 1.42  25 1.42
  23  0.372  0.200  0.000-  10 1.42   4 1.42  24 1.42
  24  0.439  0.334  0.000-  13 1.42  31 1.42  23 1.42
  25  0.172  0.600  0.001-  26 1.42  12 1.42  22 1.42
  26  0.239  0.734  0.001-  25 1.42  45 1.42  43 1.42
  27  0.572  0.200  0.000-  10 1.42  28 1.42  16 1.42
  28  0.639  0.334  0.000-  27 1.42  37 1.42  31 1.42
  29  0.372  0.600  0.000-  22 1.42  14 1.42  30 1.42
  30  0.439  0.734  0.000-  47 1.42  29 1.42  45 1.42
  31  0.572  0.400  0.000-  32 1.42  28 1.42  24 1.42
  32  0.639  0.534  0.000-  31 1.42  39 1.42  19 1.42
  33  0.772  0.000  0.001-  34 1.42  48 1.42  50 1.42
  34  0.839  0.134  0.001-  33 1.42   5 1.42  35 1.42
  35  0.772  0.200  0.001-  36 1.42  16 1.42  34 1.42
  36  0.839  0.334  0.001-  35 1.42  11 1.42  37 1.42
  37  0.772  0.400  0.001-  28 1.42  38 1.42  36 1.42
  38  0.839  0.534  0.001-  17 1.42  37 1.42  39 1.42
  39  0.772  0.600  0.001-  40 1.42  38 1.42  32 1.42
  40  0.839  0.734  0.001-  39 1.42  49 1.42  41 1.42
  41  0.972  0.800  0.001-  18 1.42  42 1.42  40 1.42
  42  0.039  0.934  0.001-   3 1.42  41 1.42   1 1.42
  43  0.172  0.800  0.001-  18 1.42  44 1.42  26 1.42
  44  0.239  0.934  0.001-   9 1.42  43 1.42   3 1.42
  45  0.372  0.800  0.001-  26 1.42  46 1.42  30 1.42
  46  0.439  0.934  0.001-  15 1.42  45 1.42   9 1.42
  47  0.572  0.800  0.001-  30 1.42  48 1.42  20 1.42
  48  0.639  0.934  0.001-  47 1.42  33 1.42  15 1.42
  49  0.772  0.800  0.001-  50 1.42  20 1.42  40 1.42
  50  0.839  0.934  0.001-  49 1.42   1 1.42  33 1.42
  51  0.373  0.251  0.159-  52 1.18  53 1.18
  52  0.421  0.189  0.161-  51 1.18
  53  0.325  0.313  0.156-  51 1.18
 
  LATTYP: Found a hexagonal cell.
 ALAT       =    12.3250000000
 C/A-ratio  =     2.0283975659
  
  Lattice vectors:
  
 A1 = (  12.3250000000,   0.0000000000,   0.0000000000)
 A2 = (  -6.1625000000,  10.6737631016,   0.0000000000)
 A3 = (   0.0000000000,   0.0000000000,  25.0000000000)


Analysis of symmetry for initial positions (statically):
=====================================================================
 Subroutine PRICEL returns:
 Original cell was already a primitive cell.
 

 Routine SETGRP: Setting up the symmetry group for a 
 hexagonal supercell.


 Subroutine GETGRP returns: Found  1 space group operations
 (whereof  1 operations were pure point group operations)
 out of a pool of 24 trial point group operations.


The static configuration has the point symmetry C_1 .


Analysis of symmetry for dynamics (positions and initial velocities):
=====================================================================
 Subroutine PRICEL returns:
 Original cell was already a primitive cell.
 

 Routine SETGRP: Setting up the symmetry group for a 
 hexagonal supercell.


 Subroutine GETGRP returns: Found  1 space group operations
 (whereof  1 operations were pure point group operations)
 out of a pool of 24 trial point group operations.


The dynamic configuration has the point symmetry C_1 .


 Subroutine INISYM returns: Found  1 space group operations
 (whereof  1 operations are pure point group operations),
 and found     1 'primitive' translations


----------------------------------------------------------------------------------------

                                     Primitive cell                                     

  volume of cell :    3288.8533

  direct lattice vectors                    reciprocal lattice vectors
    12.325000000  0.000000000  0.000000000     0.081135903  0.046843835  0.000000000
    -6.162500000 10.673763102  0.000000000     0.000000000  0.093687670  0.000000000
     0.000000000  0.000000000 25.000000000     0.000000000  0.000000000  0.040000000

  length of vectors
    12.325000000 12.325000000 25.000000000     0.093687670  0.093687670  0.040000000

  position of ions in fractional coordinates (direct lattice)
     0.972450841  0.000320818  0.000566711
     0.039118382  0.133659505  0.000440173
     0.172443627  0.000295449  0.000499628
     0.239096278  0.133647917  0.000256468
     0.972452058  0.200322012  0.000485219
     0.039128360  0.333643771  0.000444150
     0.172451764  0.200354552  0.000219167
     0.239124359  0.333665720  0.000072260
     0.372465565  0.000324403  0.000453913
     0.439137473  0.133619939  0.000258338
     0.972449824  0.400309362  0.000547611
     0.039124981  0.533636789  0.000573410
     0.372416176  0.400329481  0.000000000
     0.439099602  0.533638981  0.000232414
     0.572443676  0.000312125  0.000559580
     0.639110207  0.133631751  0.000547275
     0.972452703  0.600305653  0.000640289
     0.039124495  0.733640359  0.000654513
     0.572433471  0.600306242  0.000402895
     0.639111888  0.733641879  0.000527905
     0.172454630  0.400318228  0.000289045
     0.239120185  0.533636548  0.000378509
     0.372459750  0.200295993  0.000088997
     0.439107096  0.333673419  0.000055762
     0.172452155  0.600311506  0.000524340
     0.239123371  0.733638574  0.000575129
     0.572431082  0.200289171  0.000413296
     0.639112773  0.333618630  0.000462376
     0.372439808  0.600308022  0.000362844
     0.439116090  0.733637858  0.000494190
     0.572469358  0.400320504  0.000339918
     0.639119408  0.533650873  0.000459610
     0.772445723  0.000315427  0.000596161
     0.839116277  0.133640203  0.000575306
     0.772440513  0.200307432  0.000581033
     0.839120241  0.333635728  0.000585467
     0.772446320  0.400298367  0.000582978
     0.839118980  0.533633964  0.000621100
     0.772456143  0.600308173  0.000595712
     0.839115033  0.733643180  0.000631512
     0.972455313  0.800305582  0.000652233
     0.039114714  0.933643289  0.000598051
     0.172457971  0.800312211  0.000623372
     0.239134551  0.933647193  0.000544850
     0.372451396  0.800316674  0.000551399
     0.439124489  0.933644769  0.000541430
     0.572441101  0.800310054  0.000534535
     0.639115067  0.933638985  0.000587644
     0.772445098  0.800313187  0.000602062
     0.839116614  0.933644338  0.000606830
     0.373021009  0.251226878  0.158740105
     0.420879805  0.189313152  0.161316980
     0.325156981  0.313167186  0.156361910

  ion indices of the primitive-cell ions
   primitive index   ion index
                 1           1
                 2           2
                 3           3
                 4           4
                 5           5
                 6           6
                 7           7
                 8           8
                 9           9
                10          10
                11          11
                12          12
                13          13
                14          14
                15          15
                16          16
                17          17
                18          18
                19          19
                20          20
                21          21
                22          22
                23          23
                24          24
                25          25
                26          26
                27          27
                28          28
                29          29
                30          30
                31          31
                32          32
                33          33
                34          34
                35          35
                36          36
                37          37
                38          38
                39          39
                40          40
                41          41
                42          42
                43          43
                44          44
                45          45
                46          46
                47          47
                48          48
                49          49
                50          50
                51          51
                52          52
                53          53

----------------------------------------------------------------------------------------

 
 
 KPOINTS: auto                                    

Automatic generation of k-mesh.
 Grid dimensions read from file:
 generate k-points for:    1    1    1

 Generating k-lattice:

  Cartesian coordinates                     Fractional coordinates (reciprocal lattice)
     0.081135903  0.046843835  0.000000000     1.000000000 -0.000000000  0.000000000
     0.000000000  0.093687670  0.000000000     0.000000000  1.000000000  0.000000000
     0.000000000  0.000000000  0.040000000     0.000000000  0.000000000  1.000000000

  Length of vectors
     0.093687670  0.093687670  0.040000000

  Shift w.r.t. Gamma in fractional coordinates (k-lattice)
     0.000000000  0.000000000  0.000000000

 
 Subroutine IBZKPT returns following result:
 ===========================================
 
 Found      1 irreducible k-points:
 
 Following reciprocal coordinates:
            Coordinates               Weight
  0.000000  0.000000  0.000000      1.000000
 
 Following cartesian coordinates:
            Coordinates               Weight
  0.000000  0.000000  0.000000      1.000000
 


--------------------------------------------------------------------------------------------------------




 Dimension of arrays:
   k-points           NKPTS =      1   k-points in BZ     NKDIM =      1   number of bands    NBANDS=    168
   number of dos      NEDOS =    301   number of ions     NIONS =     53
   non local maximal  LDIM  =      4   non local SUM 2l+1 LMDIM =      8
   total plane-waves  NPLWV = ******
   max r-space proj   IRMAX =      1   max aug-charges    IRDMAX=  10008
   dimension x,y,z NGX =   128 NGY =  128 NGZ =  270
   dimension x,y,z NGXF=   256 NGYF=  256 NGZF=  540
   support grid    NGXF=   256 NGYF=  256 NGZF=  540
   ions per type =              51   2
   NGX,Y,Z   is equivalent  to a cutoff of  17.27, 17.27, 17.95 a.u.
   NGXF,Y,Z  is equivalent  to a cutoff of  34.53, 34.53, 35.91 a.u.

 SYSTEM =  unknown system                          
 POSCAR =   C  O                                   

 Startparameter for this run:
   NWRITE =      2    write-flag & timer
   PREC   = accura    normal or accurate (medium, high low for compatibility)
   ISTART =      0    job   : 0-new  1-cont  2-samecut
   ICHARG =      2    charge: 1-file 2-atom 10-const
   ISPIN  =      1    spin polarized calculation?
   LNONCOLLINEAR =      F non collinear calculations
   LSORBIT =      F    spin-orbit coupling
   INIWAV =      1    electr: 0-lowe 1-rand  2-diag
   LASPH  =      T    aspherical Exc in radial PAW
 Electronic Relaxation 1
   ENCUT  = 1000.0 eV  73.50 Ry    8.57 a.u.  31.78 31.78 64.46*2*pi/ulx,y,z
   ENINI  = 1000.0     initial cutoff
   ENAUG  =  946.8 eV  augmentation charge cutoff
   NELM   =     60;   NELMIN=  2; NELMDL= -5     # of ELM steps 
   EDIFF  = 0.1E-06   stopping-criterion for ELM
   LREAL  =      F    real-space projection
   NLSPLINE    = F    spline interpolate recip. space projectors
   LCOMPAT=      F    compatible to vasp.4.4
   GGA_COMPAT  = T    GGA compatible to vasp.4.4-vasp.4.6
   LMAXPAW     = -100 max onsite density
   LMAXMIX     =    2 max onsite mixed and CHGCAR
   VOSKOWN=      0    Vosko Wilk Nusair interpolation
   ROPT   =    0.00000   0.00000
 Ionic relaxation
   EDIFFG = 0.1E-05   stopping-criterion for IOM
   NSW    =      0    number of steps for IOM
   NBLOCK =      1;   KBLOCK =      1    inner block; outer block 
   IBRION =     -1    ionic relax: 0-MD 1-quasi-New 2-CG
   NFREE  =      0    steps in history (QN), initial steepest desc. (CG)
   ISIF   =      0    stress and relaxation
   IWAVPR =     10    prediction:  0-non 1-charg 2-wave 3-comb
   ISYM   =      2    0-nonsym 1-usesym 2-fastsym
   LCORR  =      T    Harris-Foulkes like correction to forces

   POTIM  = 0.5000    time-step for ionic-motion
   TEIN   =    0.0    initial temperature
   TEBEG  =    0.0;   TEEND  =   0.0 temperature during run
   SMASS  =  -3.00    Nose mass-parameter (am)
   estimated Nose-frequenzy (Omega)   =  0.10E-29 period in steps = 0.13E+47 mass=  -0.347E-26a.u.
   SCALEE = 1.0000    scale energy and forces
   NPACO  =    256;   APACO  = 16.0  distance and # of slots for P.C.
   PSTRESS=    0.0 pullay stress

  Mass of Ions in am
   POMASS =  12.01 16.00
  Ionic Valenz
   ZVAL   =   4.00  6.00
  Atomic Wigner-Seitz radii
   RWIGS  =  -1.00 -1.00
  virtual crystal weights 
   VCA    =   1.00  1.00
   NELECT =     216.0000    total number of electrons
   NUPDOWN=      -1.0000    fix difference up-down

 DOS related values:
   EMIN   =  10.00;   EMAX   =-10.00  energy-range for DOS
   EFERMI =   0.00
   ISMEAR =     0;   SIGMA  =   0.01  broadening in eV -4-tet -1-fermi 0-gaus

 Electronic relaxation 2 (details)
   IALGO  =     58    algorithm
   LDIAG  =      T    sub-space diagonalisation (order eigenvalues)
   LSUBROT=      F    optimize rotation matrix (better conditioning)
   TURBO    =      0    0=normal 1=particle mesh
   IRESTART =      0    0=no restart 2=restart with 2 vectors
   NREBOOT  =      0    no. of reboots
   NMIN     =      0    reboot dimension
   EREF     =   0.00    reference energy to select bands
   IMIX   =      4    mixing-type and parameters
     AMIX     =   0.40;   BMIX     =  1.00
     AMIX_MAG =   1.60;   BMIX_MAG =  1.00
     AMIN     =   0.10
     WC   =   100.;   INIMIX=   1;  MIXPRE=   1;  MAXMIX= -45

 Intra band minimization:
   WEIMIN = 0.0000     energy-eigenvalue tresh-hold
   EBREAK =  0.15E-09  absolut break condition
   DEPER  =   0.30     relativ break condition  

   TIME   =   0.40     timestep for ELM

  volume/ion in A,a.u.               =      62.05       418.76
  Fermi-wavevector in a.u.,A,eV,Ry     =   0.660508  1.248179  5.935820  0.436270
  Thomas-Fermi vector in A             =   1.732977
 
 Write flags
   LWAVE        =      T    write WAVECAR
   LDOWNSAMPLE  =      F    k-point downsampling of WAVECAR
   LCHARG       =      T    write CHGCAR
   LVTOT        =      F    write LOCPOT, total local potential
   LVHAR        =      F    write LOCPOT, Hartree potential only
   LELF         =      F    write electronic localiz. function (ELF)
   LORBIT       =      0    0 simple, 1 ext, 2 COOP (PROOUT), +10 PAW based schemes


 Dipole corrections
   LMONO  =      F    monopole corrections only (constant potential shift)
   LDIPOL =      F    correct potential (dipole corrections)
   IDIPOL =      0    1-x, 2-y, 3-z, 4-all directions 
   EPSILON=  1.0000000 bulk dielectric constant

 Exchange correlation treatment:
   GGA     =    --    GGA type
   LEXCH   =     8    internal setting for exchange type
   VOSKOWN=      0    Vosko Wilk Nusair interpolation
   LHFCALC =     F    Hartree Fock is set to
   LHFONE  =     F    Hartree Fock one center treatment
   AEXX    =    0.0000 exact exchange contribution

 Linear response parameters
   LEPSILON=     F    determine dielectric tensor
   LRPA    =     F    only Hartree local field effects (RPA)
   LNABLA  =     F    use nabla operator in PAW spheres
   LVEL    =     F    velocity operator in full k-point grid
   LINTERFAST=   F  fast interpolation
   KINTER  =     0    interpolate to denser k-point grid
   CSHIFT  =0.1000    complex shift for real part using Kramers Kronig
   OMEGAMAX=  -1.0    maximum frequency
   DEG_THRESHOLD= 0.2000000E-02 threshold for treating states as degnerate
   RTIME   =   -0.100 relaxation time in fs
  (WPLASMAI=    0.000 imaginary part of plasma frequency in eV, 0.658/RTIME)
   DFIELD  = 0.0000000 0.0000000 0.0000000 field for delta impulse in time
 
 Orbital magnetization related:
   ORBITALMAG=     F  switch on orbital magnetization
   LCHIMAG   =     F  perturbation theory with respect to B field
   DQ        =  0.001000  dq finite difference perturbation B field
   LLRAUG    =     F  two centre corrections for induced B field



--------------------------------------------------------------------------------------------------------


 Static calculation
 charge density and potential will be updated during run
 non-spin polarized calculation
 Conjugate gradient for all bands (Freysoldt, et al. PRB 79, 241103 (2009))
 preconditioned conjugated gradient                                        
 perform sub-space diagonalisation
    before iterative eigenvector-optimisation
 modified Broyden-mixing scheme, WC =      100.0
 initial mixing is a Kerker type mixing with AMIX =  0.4000 and BMIX =      1.0000
 Hartree-type preconditioning will be used
 using additional bands           60
 reciprocal scheme for non local part
 use partial core corrections
 no Harris-corrections to forces 
 use gradient corrections 
 use of overlap-Matrix (Vanderbilt PP)
 Gauss-broadening in eV      SIGMA  =   0.01


--------------------------------------------------------------------------------------------------------


  energy-cutoff  :     1000.00
  volume of cell :     3288.85
      direct lattice vectors                 reciprocal lattice vectors
    12.325000000  0.000000000  0.000000000     0.081135903  0.046843835  0.000000000
    -6.162500000 10.673763102  0.000000000     0.000000000  0.093687670  0.000000000
     0.000000000  0.000000000 25.000000000     0.000000000  0.000000000  0.040000000

  length of vectors
    12.325000000 12.325000000 25.000000000     0.093687670  0.093687670  0.040000000


 
 k-points in units of 2pi/SCALE and weight: auto                                    
   0.00000000  0.00000000  0.00000000       1.000
 
 k-points in reciprocal lattice and weights: auto                                    
   0.00000000  0.00000000  0.00000000       1.000
 
 position of ions in fractional coordinates (direct lattice) 
   0.97245084  0.00032082  0.00056671
   0.03911838  0.13365950  0.00044017
   0.17244363  0.00029545  0.00049963
   0.23909628  0.13364792  0.00025647
   0.97245206  0.20032201  0.00048522
   0.03912836  0.33364377  0.00044415
   0.17245176  0.20035455  0.00021917
   0.23912436  0.33366572  0.00007226
   0.37246557  0.00032440  0.00045391
   0.43913747  0.13361994  0.00025834
   0.97244982  0.40030936  0.00054761
   0.03912498  0.53363679  0.00057341
   0.37241618  0.40032948  0.00000000
   0.43909960  0.53363898  0.00023241
   0.57244368  0.00031213  0.00055958
   0.63911021  0.13363175  0.00054727
   0.97245270  0.60030565  0.00064029
   0.03912449  0.73364036  0.00065451
   0.57243347  0.60030624  0.00040289
   0.63911189  0.73364188  0.00052791
   0.17245463  0.40031823  0.00028904
   0.23912018  0.53363655  0.00037851
   0.37245975  0.20029599  0.00008900
   0.43910710  0.33367342  0.00005576
   0.17245216  0.60031151  0.00052434
   0.23912337  0.73363857  0.00057513
   0.57243108  0.20028917  0.00041330
   0.63911277  0.33361863  0.00046238
   0.37243981  0.60030802  0.00036284
   0.43911609  0.73363786  0.00049419
   0.57246936  0.40032050  0.00033992
   0.63911941  0.53365087  0.00045961
   0.77244572  0.00031543  0.00059616
   0.83911628  0.13364020  0.00057531
   0.77244051  0.20030743  0.00058103
   0.83912024  0.33363573  0.00058547
   0.77244632  0.40029837  0.00058298
   0.83911898  0.53363396  0.00062110
   0.77245614  0.60030817  0.00059571
   0.83911503  0.73364318  0.00063151
   0.97245531  0.80030558  0.00065223
   0.03911471  0.93364329  0.00059805
   0.17245797  0.80031221  0.00062337
   0.23913455  0.93364719  0.00054485
   0.37245140  0.80031667  0.00055140
   0.43912449  0.93364477  0.00054143
   0.57244110  0.80031005  0.00053453
   0.63911507  0.93363899  0.00058764
   0.77244510  0.80031319  0.00060206
   0.83911661  0.93364434  0.00060683
   0.37302101  0.25122688  0.15874011
   0.42087980  0.18931315  0.16131698
   0.32515698  0.31316719  0.15636191
 
 position of ions in cartesian coordinates  (Angst):
  11.98347958  0.00342433  0.01416777
  -0.34154264  1.42664989  0.01100432
   2.12354700  0.00315355  0.01249070
   2.12325634  1.42652621  0.00641170
  10.75098721  2.13818970  0.01213047
  -1.57382270  3.56123457  0.01110375
   0.89078307  2.13853702  0.00547917
   0.89099273  3.56146885  0.00180651
   4.58863896  0.00346260  0.01134782
   4.58893648  1.42622757  0.00645846
   9.51853763  4.27280730  0.01369027
  -2.80632132  5.69591267  0.01433526
   2.12299894  4.27302204  0.00000000
   2.12335237  5.69593607  0.00581036
   7.05344483  0.00333155  0.01398950
   7.05352764  1.42635365  0.01368187
   8.28609598  6.40752033  0.01600723
  -4.03884931  7.83070339  0.01636283
   3.35585531  6.40752662  0.01007237
   3.35598594  7.83071962  0.01319763
  -0.34145776  4.27290193  0.00722612
  -0.34137895  5.69591010  0.00946273
   3.35624236  2.13791198  0.00222492
   3.35573251  3.56155103  0.00139405
  -1.57394684  6.40758280  0.01310850
  -1.57385216  7.83068434  0.01437823
   5.82093107  2.13783916  0.01033241
   5.82114012  3.56096622  0.01155939
   0.89092245  6.40754561  0.00907111
   0.89106251  7.83067670  0.01235474
   4.58870974  4.27292622  0.00849795
   4.58852320  5.69606300  0.01149026
   9.51844972  0.00336679  0.01490402
   9.51855036  1.42644387  0.01438264
   8.28593477  2.13803408  0.01452582
   8.28612680  3.56114872  0.01463668
   7.05356221  4.27268994  0.01457444
   7.05362213  5.69588251  0.01552751
   5.82112285  6.40754723  0.01489279
   5.82101669  7.83073350  0.01578780
   7.05362858  8.54227219  0.01630582
  -5.27148792  9.96548729  0.01495127
  -2.80637951  8.54234295  0.01558431
  -2.80626749  9.96552896  0.01362126
  -0.34148805  8.54239058  0.01378498
  -0.34137657  9.96550309  0.01353576
   2.12342586  8.54231992  0.01336337
   2.12354296  9.96544135  0.01469111
   4.58845581  8.54235337  0.01505154
   4.58852904  9.96549848  0.01517076
   3.04929830  2.68153618  3.96850263
   4.02070129  2.02068374  4.03292449
   2.07766701  3.34267235  3.90904776
 


--------------------------------------------------------------------------------------------------------


 k-point   1 :   0.0000 0.0000 0.0000  plane waves:  236157

 maximum and minimum number of plane-waves per node :    236157   236157

 maximum number of plane-waves:    236157
 maximum index in each direction: 
   IXMAX=   31   IYMAX=   31   IZMAX=   64
   IXMIN=  -31   IYMIN=  -31   IZMIN=  -64


 serial   3D FFT for wavefunctions
 parallel 3D FFT for charge:
    minimum data exchange during FFTs selected (reduces bandwidth)


 total amount of memory used by VASP MPI-rank0   698619. kBytes
=======================================================================

   base      :      30000. kBytes
   nonl-proj :     230539. kBytes
   fftplans  :      40716. kBytes
   grid      :     363125. kBytes
   one-center:        162. kBytes
   wavefun   :      34077. kBytes
 
     INWAV:  cpu time    0.0000: real time    0.0000
 Broyden mixing: mesh for mixing (old mesh)
   NGX = 63   NGY = 63   NGZ =129
  (NGX  =256   NGY  =256   NGZ  =540)
  gives a total of 512001 points

 initial charge density was supplied:
 charge density of overlapping atoms calculated
 number of electron     216.0000000 magnetization 
 keeping initial charge density in first step


--------------------------------------------------------------------------------------------------------


 Maximum index for augmentation-charges          471 (set IRDMAX)


--------------------------------------------------------------------------------------------------------


 First call to EWALD:  gamma=   0.119
 Maximum number of real-space cells 4x 4x 2
 Maximum number of reciprocal cells 2x 2x 4

    FEWALD:  cpu time    0.0034: real time    0.0034


--------------------------------------- Iteration      1(   1)  ---------------------------------------


    POTLOK:  cpu time    1.7192: real time    1.7296
    SETDIJ:  cpu time    0.2044: real time    0.2051
    TRIAL :  cpu time   27.4701: real time   27.6884
    CORREC:  cpu time    0.0007: real time    0.0009
    --------------------------------------------
      LOOP:  cpu time   29.4059: real time   29.6480

 eigenvalue-minimisations  :   336
 total energy-change (2. order) : 0.2546684E+04  (-0.1080673E+05)
 number of electron     216.0000000 magnetization 
 augmentation part      216.0000000 magnetization 

 Free energy of the ion-electron system (eV)
  ---------------------------------------------------
  alpha Z        PSCENC =        47.94900195
  Ewald energy   TEWEN  =     46249.24210674
  -Hartree energ DENC   =    -52318.32417697
  -exchange      EXHF   =         0.00000000
  -V(xc)+E(xc)   XCENC  =       605.11266693
  PAW double counting   =      6340.10990386    -6200.63067283
  entropy T*S    EENTRO =        -0.00000022
  eigenvalues    EBANDS =      -546.29864614
  atomic energy  EATOM  =      8369.52358910
  ---------------------------------------------------
  free energy    TOTEN  =      2546.68377243 eV

  energy without entropy =     2546.68377265  energy(sigma->0) =     2546.68377254


--------------------------------------------------------------------------------------------------------




--------------------------------------- Iteration      1(   2)  ---------------------------------------


    TRIAL :  cpu time   38.9977: real time   39.3030
    CORREC:  cpu time    0.0001: real time    0.0001
    --------------------------------------------
      LOOP:  cpu time   39.0350: real time   39.3446

 eigenvalue-minimisations  :   560
 total energy-change (2. order) :-0.2484252E+04  (-0.2327724E+04)
 number of electron     216.0000000 magnetization 
 augmentation part      216.0000000 magnetization 

 Free energy of the ion-electron system (eV)
  ---------------------------------------------------
  alpha Z        PSCENC =        47.94900195
  Ewald energy   TEWEN  =     46249.24210674
  -Hartree energ DENC   =    -52318.32417697
  -exchange      EXHF   =         0.00000000
  -V(xc)+E(xc)   XCENC  =       605.11266693
  PAW double counting   =      6340.10990386    -6200.63067283
  entropy T*S    EENTRO =        -0.00000000
  eigenvalues    EBANDS =     -3030.55090753
  atomic energy  EATOM  =      8369.52358910
  ---------------------------------------------------
  free energy    TOTEN  =        62.43151126 eV

  energy without entropy =       62.43151126  energy(sigma->0) =       62.43151126


--------------------------------------------------------------------------------------------------------




--------------------------------------- Iteration      1(   3)  ---------------------------------------


    TRIAL :  cpu time   30.2859: real time   30.5149
    CORREC:  cpu time    0.0001: real time    0.0001
    --------------------------------------------
      LOOP:  cpu time   30.3696: real time   30.6042

 eigenvalue-minimisations  :   392
 total energy-change (2. order) :-0.6357078E+03  (-0.6326030E+03)
 number of electron     216.0000000 magnetization 
 augmentation part      216.0000000 magnetization 

 Free energy of the ion-electron system (eV)
  ---------------------------------------------------
  alpha Z        PSCENC =        47.94900195
  Ewald energy   TEWEN  =     46249.24210674
  -Hartree energ DENC   =    -52318.32417697
  -exchange      EXHF   =         0.00000000
  -V(xc)+E(xc)   XCENC  =       605.11266693
  PAW double counting   =      6340.10990386    -6200.63067283
  entropy T*S    EENTRO =        -0.00000000
  eigenvalues    EBANDS =     -3666.25868114
  atomic energy  EATOM  =      8369.52358910
  ---------------------------------------------------
  free energy    TOTEN  =      -573.27626235 eV

  energy without entropy =     -573.27626235  energy(sigma->0) =     -573.27626235


--------------------------------------------------------------------------------------------------------




--------------------------------------- Iteration      1(   4)  ---------------------------------------


    TRIAL :  cpu time   33.1781: real time   33.4401
    CORREC:  cpu time    0.0001: real time    0.0001
    --------------------------------------------
      LOOP:  cpu time   33.2224: real time   33.4872

 eigenvalue-minimisations  :   448
 total energy-change (2. order) :-0.3331342E+02  (-0.3307228E+02)
 number of electron     216.0000000 magnetization 
 augmentation part      216.0000000 magnetization 

 Free energy of the ion-electron system (eV)
  ---------------------------------------------------
  alpha Z        PSCENC =        47.94900195
  Ewald energy   TEWEN  =     46249.24210674
  -Hartree energ DENC   =    -52318.32417697
  -exchange      EXHF   =         0.00000000
  -V(xc)+E(xc)   XCENC  =       605.11266693
  PAW double counting   =      6340.10990386    -6200.63067283
  entropy T*S    EENTRO =        -0.00000000
  eigenvalues    EBANDS =     -3699.57209676
  atomic energy  EATOM  =      8369.52358910
  ---------------------------------------------------
  free energy    TOTEN  =      -606.58967797 eV

  energy without entropy =     -606.58967797  energy(sigma->0) =     -606.58967797


--------------------------------------------------------------------------------------------------------




--------------------------------------- Iteration      1(   5)  ---------------------------------------


    TRIAL :  cpu time   33.1751: real time   33.4209
    CORREC:  cpu time    0.0001: real time    0.0001
    CHARGE:  cpu time    2.9648: real time    2.9862
    --------------------------------------------
      LOOP:  cpu time   36.2178: real time   36.4911

 eigenvalue-minimisations  :   448
 total energy-change (2. order) :-0.1133021E+01  (-0.1128861E+01)
 number of electron     216.0000000 magnetization 
 augmentation part       -0.4504720 magnetization 

 Free energy of the ion-electron system (eV)
  ---------------------------------------------------
  alpha Z        PSCENC =        47.94900195
  Ewald energy   TEWEN  =     46249.24210674
  -Hartree energ DENC   =    -52318.32417697
  -exchange      EXHF   =         0.00000000
  -V(xc)+E(xc)   XCENC  =       605.11266693
  PAW double counting   =      6340.10990386    -6200.63067283
  entropy T*S    EENTRO =        -0.00000000
  eigenvalues    EBANDS =     -3700.70511815
  atomic energy  EATOM  =      8369.52358910
  ---------------------------------------------------
  free energy    TOTEN  =      -607.72269936 eV

  energy without entropy =     -607.72269936  energy(sigma->0) =     -607.72269936


--------------------------------------------------------------------------------------------------------




--------------------------------------- Iteration      1(   6)  ---------------------------------------


    POTLOK:  cpu time    1.6842: real time    1.6944
    SETDIJ:  cpu time    0.2110: real time    0.2118
    TRIAL :  cpu time   19.6403: real time   19.8040
    CORREC:  cpu time    8.8352: real time    8.9029
    CHARGE:  cpu time    2.9794: real time    3.0030
    --------------------------------------------
      LOOP:  cpu time   33.4017: real time   33.6689

 eigenvalue-minimisations  :     0
 total energy-change (2. order) : 0.9788921E+02  (-0.1129495E+02)
 number of electron     216.0000000 magnetization 
 augmentation part       -0.5081387 magnetization 

 Free energy of the ion-electron system (eV)
  ---------------------------------------------------
  alpha Z        PSCENC =        47.94900195
  Ewald energy   TEWEN  =     46249.24210674
  -Hartree energ DENC   =    -53660.77218188
  -exchange      EXHF   =         0.00000000
  -V(xc)+E(xc)   XCENC  =       676.71802126
  PAW double counting   =    119570.24733093  -119430.65171023
  entropy T*S    EENTRO =        -0.00000000
  eigenvalues    EBANDS =     -2332.08964755
  atomic energy  EATOM  =      8369.52358910
  ---------------------------------------------------
  free energy    TOTEN  =      -509.83348968 eV

  energy without entropy =     -509.83348968  energy(sigma->0) =     -509.83348968


--------------------------------------------------------------------------------------------------------




--------------------------------------- Iteration      1(   7)  ---------------------------------------


    POTLOK:  cpu time    1.7423: real time    1.7544
    SETDIJ:  cpu time    0.1720: real time    0.1726
    TRIAL :  cpu time   19.6447: real time   19.8101
    CORREC:  cpu time    8.8424: real time    8.8995
    CHARGE:  cpu time    2.9674: real time    2.9937
    --------------------------------------------
      LOOP:  cpu time   33.4170: real time   33.6812

 eigenvalue-minimisations  :     0
 total energy-change (2. order) :-0.1130883E+02  (-0.1459236E+01)
 number of electron     216.0000000 magnetization 
 augmentation part       -0.5406859 magnetization 

 Free energy of the ion-electron system (eV)
  ---------------------------------------------------
  alpha Z        PSCENC =        47.94900195
  Ewald energy   TEWEN  =     46249.24210674
  -Hartree energ DENC   =    -53248.63275546
  -exchange      EXHF   =         0.00000000
  -V(xc)+E(xc)   XCENC  =       659.07167207
  PAW double counting   =    138767.43011013  -138626.09869390
  entropy T*S    EENTRO =        -0.00000000
  eigenvalues    EBANDS =     -2739.62734879
  atomic energy  EATOM  =      8369.52358910
  ---------------------------------------------------
  free energy    TOTEN  =      -521.14231814 eV

  energy without entropy =     -521.14231814  energy(sigma->0) =     -521.14231814


--------------------------------------------------------------------------------------------------------




--------------------------------------- Iteration      1(   8)  ---------------------------------------


    POTLOK:  cpu time    1.6855: real time    1.6955
    SETDIJ:  cpu time    0.2038: real time    0.2046
    TRIAL :  cpu time   19.6628: real time   19.8069
    CORREC:  cpu time    8.8330: real time    8.8961
    CHARGE:  cpu time    2.9526: real time    2.9733
    --------------------------------------------
      LOOP:  cpu time   33.3818: real time   33.6243

 eigenvalue-minimisations  :     0
 total energy-change (2. order) :-0.1459507E+01  (-0.4522091E+00)
 number of electron     216.0000000 magnetization 
 augmentation part       -0.5420589 magnetization 

 Free energy of the ion-electron system (eV)
  ---------------------------------------------------
  alpha Z        PSCENC =        47.94900195
  Ewald energy   TEWEN  =     46249.24210674
  -Hartree energ DENC   =    -53220.52536648
  -exchange      EXHF   =         0.00000000
  -V(xc)+E(xc)   XCENC  =       658.00773079
  PAW double counting   =    148497.13651173  -148355.68099115
  entropy T*S    EENTRO =        -0.00000000
  eigenvalues    EBANDS =     -2768.25440794
  atomic energy  EATOM  =      8369.52358910
  ---------------------------------------------------
  free energy    TOTEN  =      -522.60182526 eV

  energy without entropy =     -522.60182526  energy(sigma->0) =     -522.60182526


--------------------------------------------------------------------------------------------------------




--------------------------------------- Iteration      1(   9)  ---------------------------------------


    POTLOK:  cpu time    1.6842: real time    1.6956
    SETDIJ:  cpu time    0.2025: real time    0.2034
    TRIAL :  cpu time   19.6411: real time   19.8141
    CORREC:  cpu time    8.8500: real time    8.9187
    CHARGE:  cpu time    2.9529: real time    2.9775
    --------------------------------------------
      LOOP:  cpu time   33.4095: real time   33.6889

 eigenvalue-minimisations  :     0
 total energy-change (2. order) :-0.4520736E+00  (-0.1764969E+00)
 number of electron     216.0000000 magnetization 
 augmentation part       -0.5392396 magnetization 

 Free energy of the ion-electron system (eV)
  ---------------------------------------------------
  alpha Z        PSCENC =        47.94900195
  Ewald energy   TEWEN  =     46249.24210674
  -Hartree energ DENC   =    -53228.03939273
  -exchange      EXHF   =         0.00000000
  -V(xc)+E(xc)   XCENC  =       657.99501779
  PAW double counting   =    156233.30232093  -156091.77846231
  entropy T*S    EENTRO =        -0.00000000
  eigenvalues    EBANDS =     -2761.24808029
  atomic energy  EATOM  =      8369.52358910
  ---------------------------------------------------
  free energy    TOTEN  =      -523.05389882 eV

  energy without entropy =     -523.05389882  energy(sigma->0) =     -523.05389882


--------------------------------------------------------------------------------------------------------




--------------------------------------- Iteration      1(  10)  ---------------------------------------


    POTLOK:  cpu time    1.6841: real time    1.6933
    SETDIJ:  cpu time    0.2031: real time    0.2038
    TRIAL :  cpu time   19.6691: real time   19.8064
    CORREC:  cpu time    8.8462: real time    8.9037
    CHARGE:  cpu time    2.9417: real time    2.9637
    --------------------------------------------
      LOOP:  cpu time   33.4064: real time   33.6366

 eigenvalue-minimisations  :     0
 total energy-change (2. order) :-0.1763232E+00  (-0.7734406E-01)
 number of electron     216.0000000 magnetization 
 augmentation part       -0.5342546 magnetization 

 Free energy of the ion-electron system (eV)
  ---------------------------------------------------
  alpha Z        PSCENC =        47.94900195
  Ewald energy   TEWEN  =     46249.24210674
  -Hartree energ DENC   =    -53227.68061091
  -exchange      EXHF   =         0.00000000
  -V(xc)+E(xc)   XCENC  =       657.91532264
  PAW double counting   =    159973.19329048  -159831.62320138
  entropy T*S    EENTRO =        -0.00000000
  eigenvalues    EBANDS =     -2761.74972068
  atomic energy  EATOM  =      8369.52358910
  ---------------------------------------------------
  free energy    TOTEN  =      -523.23022204 eV

  energy without entropy =     -523.23022204  energy(sigma->0) =     -523.23022204


--------------------------------------------------------------------------------------------------------




--------------------------------------- Iteration      1(  11)  ---------------------------------------


    POTLOK:  cpu time    1.6836: real time    1.6932
    SETDIJ:  cpu time    0.2076: real time    0.2084
    TRIAL :  cpu time   19.6572: real time   19.8038
    CORREC:  cpu time    8.8458: real time    8.9085
    CHARGE:  cpu time    2.9575: real time    2.9781
    --------------------------------------------
      LOOP:  cpu time   33.3902: real time   33.6341

 eigenvalue-minimisations  :     0
 total energy-change (2. order) :-0.7720452E-01  (-0.3025376E-01)
 number of electron     216.0000000 magnetization 
 augmentation part       -0.5308375 magnetization 

 Free energy of the ion-electron system (eV)
  ---------------------------------------------------
  alpha Z        PSCENC =        47.94900195
  Ewald energy   TEWEN  =     46249.24210674
  -Hartree energ DENC   =    -53221.90471401
  -exchange      EXHF   =         0.00000000
  -V(xc)+E(xc)   XCENC  =       657.83883419
  PAW double counting   =    160657.88953789  -160516.33710126
  entropy T*S    EENTRO =        -0.00000000
  eigenvalues    EBANDS =     -2767.50868117
  atomic energy  EATOM  =      8369.52358910
  ---------------------------------------------------
  free energy    TOTEN  =      -523.30742656 eV

  energy without entropy =     -523.30742656  energy(sigma->0) =     -523.30742656


--------------------------------------------------------------------------------------------------------




--------------------------------------- Iteration      1(  12)  ---------------------------------------


    POTLOK:  cpu time    1.6848: real time    1.6943
    SETDIJ:  cpu time    0.2060: real time    0.2067
    TRIAL :  cpu time   19.6558: real time   19.8078
    CORREC:  cpu time    8.8361: real time    8.8944
    CHARGE:  cpu time    2.9583: real time    2.9785
    --------------------------------------------
      LOOP:  cpu time   33.3665: real time   33.6315

 eigenvalue-minimisations  :     0
 total energy-change (2. order) :-0.3021206E-01  (-0.9434367E-02)
 number of electron     216.0000000 magnetization 
 augmentation part       -0.5306624 magnetization 

 Free energy of the ion-electron system (eV)
  ---------------------------------------------------
  alpha Z        PSCENC =        47.94900195
  Ewald energy   TEWEN  =     46249.24210674
  -Hartree energ DENC   =    -53217.52393459
  -exchange      EXHF   =         0.00000000
  -V(xc)+E(xc)   XCENC  =       657.77095118
  PAW double counting   =    160106.65515330  -159965.12848533
  entropy T*S    EENTRO =        -0.00000000
  eigenvalues    EBANDS =     -2771.82602097
  atomic energy  EATOM  =      8369.52358910
  ---------------------------------------------------
  free energy    TOTEN  =      -523.33763862 eV

  energy without entropy =     -523.33763862  energy(sigma->0) =     -523.33763862


--------------------------------------------------------------------------------------------------------




--------------------------------------- Iteration      1(  13)  ---------------------------------------


    POTLOK:  cpu time    1.6820: real time    1.6921
    SETDIJ:  cpu time    0.2061: real time    0.2069
    TRIAL :  cpu time   19.6356: real time   19.8009
    CORREC:  cpu time    8.8267: real time    8.9148
    CHARGE:  cpu time    2.9609: real time    2.9817
    --------------------------------------------
      LOOP:  cpu time   33.3933: real time   33.6858

 eigenvalue-minimisations  :     0
 total energy-change (2. order) :-0.9415690E-02  (-0.2652545E-02)
 number of electron     216.0000000 magnetization 
 augmentation part       -0.5311341 magnetization 

 Free energy of the ion-electron system (eV)
  ---------------------------------------------------
  alpha Z        PSCENC =        47.94900195
  Ewald energy   TEWEN  =     46249.24210674
  -Hartree energ DENC   =    -53216.25873556
  -exchange      EXHF   =         0.00000000
  -V(xc)+E(xc)   XCENC  =       657.72409701
  PAW double counting   =    159442.93823961  -159301.41560009
  entropy T*S    EENTRO =        -0.00000000
  eigenvalues    EBANDS =     -2773.04975307
  atomic energy  EATOM  =      8369.52358910
  ---------------------------------------------------
  free energy    TOTEN  =      -523.34705431 eV

  energy without entropy =     -523.34705431  energy(sigma->0) =     -523.34705431


--------------------------------------------------------------------------------------------------------




--------------------------------------- Iteration      1(  14)  ---------------------------------------


    POTLOK:  cpu time    1.6819: real time    1.6969
    SETDIJ:  cpu time    0.2010: real time    0.2017
    TRIAL :  cpu time   19.6482: real time   19.7950
    CORREC:  cpu time    8.8436: real time    8.9030
    CHARGE:  cpu time    2.9533: real time    2.9760
    --------------------------------------------
      LOOP:  cpu time   33.3969: real time   33.6462

 eigenvalue-minimisations  :     0
 total energy-change (2. order) :-0.2642214E-02  (-0.7260969E-03)
 number of electron     216.0000000 magnetization 
 augmentation part       -0.5314108 magnetization 

 Free energy of the ion-electron system (eV)
  ---------------------------------------------------
  alpha Z        PSCENC =        47.94900195
  Ewald energy   TEWEN  =     46249.24210674
  -Hartree energ DENC   =    -53216.33356467
  -exchange      EXHF   =         0.00000000
  -V(xc)+E(xc)   XCENC  =       657.71388012
  PAW double counting   =    159042.69235364  -158901.16871453
  entropy T*S    EENTRO =        -0.00000000
  eigenvalues    EBANDS =     -2772.96834888
  atomic energy  EATOM  =      8369.52358910
  ---------------------------------------------------
  free energy    TOTEN  =      -523.34969652 eV

  energy without entropy =     -523.34969652  energy(sigma->0) =     -523.34969652


--------------------------------------------------------------------------------------------------------




--------------------------------------- Iteration      1(  15)  ---------------------------------------


    POTLOK:  cpu time    1.6833: real time    1.6931
    SETDIJ:  cpu time    0.2080: real time    0.2088
    TRIAL :  cpu time   19.6480: real time   19.8070
    CORREC:  cpu time    8.8523: real time    8.9151
    CHARGE:  cpu time    2.9582: real time    2.9788
    --------------------------------------------
      LOOP:  cpu time   33.3592: real time   33.6456

 eigenvalue-minimisations  :     0
 total energy-change (2. order) :-0.7213339E-03  (-0.2024064E-03)
 number of electron     216.0000000 magnetization 
 augmentation part       -0.5316144 magnetization 

 Free energy of the ion-electron system (eV)
  ---------------------------------------------------
  alpha Z        PSCENC =        47.94900195
  Ewald energy   TEWEN  =     46249.24210674
  -Hartree energ DENC   =    -53216.25535010
  -exchange      EXHF   =         0.00000000
  -V(xc)+E(xc)   XCENC  =       657.70836297
  PAW double counting   =    158842.08241740  -158700.55773748
  entropy T*S    EENTRO =        -0.00000000
  eigenvalues    EBANDS =     -2773.04280845
  atomic energy  EATOM  =      8369.52358910
  ---------------------------------------------------
  free energy    TOTEN  =      -523.35041786 eV

  energy without entropy =     -523.35041786  energy(sigma->0) =     -523.35041786


--------------------------------------------------------------------------------------------------------




--------------------------------------- Iteration      1(  16)  ---------------------------------------


    POTLOK:  cpu time    1.6856: real time    1.6948
    SETDIJ:  cpu time    0.2082: real time    0.2089
    TRIAL :  cpu time   19.6625: real time   19.7962
    CORREC:  cpu time    8.8453: real time    8.9066
    CHARGE:  cpu time    2.9608: real time    2.9808
    --------------------------------------------
      LOOP:  cpu time   33.3926: real time   33.6272

 eigenvalue-minimisations  :     0
 total energy-change (2. order) :-0.2004415E-03  (-0.6643848E-04)
 number of electron     216.0000000 magnetization 
 augmentation part       -0.5316886 magnetization 

 Free energy of the ion-electron system (eV)
  ---------------------------------------------------
  alpha Z        PSCENC =        47.94900195
  Ewald energy   TEWEN  =     46249.24210674
  -Hartree energ DENC   =    -53216.15409865
  -exchange      EXHF   =         0.00000000
  -V(xc)+E(xc)   XCENC  =       657.70216861
  PAW double counting   =    158732.90046655  -158591.37409939
  entropy T*S    EENTRO =        -0.00000000
  eigenvalues    EBANDS =     -2773.13975321
  atomic energy  EATOM  =      8369.52358910
  ---------------------------------------------------
  free energy    TOTEN  =      -523.35061830 eV

  energy without entropy =     -523.35061830  energy(sigma->0) =     -523.35061830


--------------------------------------------------------------------------------------------------------




--------------------------------------- Iteration      1(  17)  ---------------------------------------


    POTLOK:  cpu time    1.6840: real time    1.6939
    SETDIJ:  cpu time    0.2018: real time    0.2025
    TRIAL :  cpu time   19.6555: real time   19.8099
    CORREC:  cpu time    8.8526: real time    8.9140
    CHARGE:  cpu time    2.9622: real time    2.9852
    --------------------------------------------
      LOOP:  cpu time   33.4311: real time   33.6811

 eigenvalue-minimisations  :     0
 total energy-change (2. order) :-0.6527838E-04  (-0.2423256E-04)
 number of electron     216.0000000 magnetization 
 augmentation part       -0.5317225 magnetization 

 Free energy of the ion-electron system (eV)
  ---------------------------------------------------
  alpha Z        PSCENC =        47.94900195
  Ewald energy   TEWEN  =     46249.24210674
  -Hartree energ DENC   =    -53216.30452047
  -exchange      EXHF   =         0.00000000
  -V(xc)+E(xc)   XCENC  =       657.70843716
  PAW double counting   =    158665.96238572  -158524.43594909
  entropy T*S    EENTRO =        -0.00000000
  eigenvalues    EBANDS =     -2772.99573470
  atomic energy  EATOM  =      8369.52358910
  ---------------------------------------------------
  free energy    TOTEN  =      -523.35068358 eV

  energy without entropy =     -523.35068358  energy(sigma->0) =     -523.35068358


--------------------------------------------------------------------------------------------------------




--------------------------------------- Iteration      1(  18)  ---------------------------------------


    POTLOK:  cpu time    1.6846: real time    1.6938
    SETDIJ:  cpu time    0.2053: real time    0.2061
    TRIAL :  cpu time   19.6656: real time   19.8161
    CORREC:  cpu time    8.8473: real time    8.9074
    CHARGE:  cpu time    2.9597: real time    2.9808
    --------------------------------------------
      LOOP:  cpu time   33.4133: real time   33.6571

 eigenvalue-minimisations  :     0
 total energy-change (2. order) :-0.2429151E-04  (-0.8471840E-05)
 number of electron     216.0000000 magnetization 
 augmentation part       -0.5317395 magnetization 

 Free energy of the ion-electron system (eV)
  ---------------------------------------------------
  alpha Z        PSCENC =        47.94900195
  Ewald energy   TEWEN  =     46249.24210674
  -Hartree energ DENC   =    -53216.36298737
  -exchange      EXHF   =         0.00000000
  -V(xc)+E(xc)   XCENC  =       657.71042808
  PAW double counting   =    158639.96657708  -158498.43984131
  entropy T*S    EENTRO =        -0.00000000
  eigenvalues    EBANDS =     -2772.93958215
  atomic energy  EATOM  =      8369.52358910
  ---------------------------------------------------
  free energy    TOTEN  =      -523.35070787 eV

  energy without entropy =     -523.35070787  energy(sigma->0) =     -523.35070787


--------------------------------------------------------------------------------------------------------




--------------------------------------- Iteration      1(  19)  ---------------------------------------


    POTLOK:  cpu time    1.6833: real time    1.6930
    SETDIJ:  cpu time    0.2058: real time    0.2066
    TRIAL :  cpu time   19.6495: real time   19.7995
    CORREC:  cpu time    8.8527: real time    8.9134
    CHARGE:  cpu time    2.9516: real time    2.9722
    --------------------------------------------
      LOOP:  cpu time   33.3871: real time   33.6590

 eigenvalue-minimisations  :     0
 total energy-change (2. order) :-0.8745235E-05  (-0.2992370E-05)
 number of electron     216.0000000 magnetization 
 augmentation part       -0.5317383 magnetization 

 Free energy of the ion-electron system (eV)
  ---------------------------------------------------
  alpha Z        PSCENC =        47.94900195
  Ewald energy   TEWEN  =     46249.24210674
  -Hartree energ DENC   =    -53216.36116398
  -exchange      EXHF   =         0.00000000
  -V(xc)+E(xc)   XCENC  =       657.71005467
  PAW double counting   =    158641.45667197  -158499.92966886
  entropy T*S    EENTRO =        -0.00000000
  eigenvalues    EBANDS =     -2772.94130821
  atomic energy  EATOM  =      8369.52358910
  ---------------------------------------------------
  free energy    TOTEN  =      -523.35071661 eV

  energy without entropy =     -523.35071661  energy(sigma->0) =     -523.35071661


--------------------------------------------------------------------------------------------------------




--------------------------------------- Iteration      1(  20)  ---------------------------------------


    POTLOK:  cpu time    1.6844: real time    1.6943
    SETDIJ:  cpu time    0.2019: real time    0.2026
    TRIAL :  cpu time   19.6522: real time   19.8117
    CORREC:  cpu time    8.8346: real time    8.8963
    CHARGE:  cpu time    2.9551: real time    2.9770
    --------------------------------------------
      LOOP:  cpu time   33.3474: real time   33.6492

 eigenvalue-minimisations  :     0
 total energy-change (2. order) :-0.3074267E-05  (-0.1035573E-05)
 number of electron     216.0000000 magnetization 
 augmentation part       -0.5317365 magnetization 

 Free energy of the ion-electron system (eV)
  ---------------------------------------------------
  alpha Z        PSCENC =        47.94900195
  Ewald energy   TEWEN  =     46249.24210674
  -Hartree energ DENC   =    -53216.38212262
  -exchange      EXHF   =         0.00000000
  -V(xc)+E(xc)   XCENC  =       657.71089492
  PAW double counting   =    158650.31170749  -158508.78475642
  entropy T*S    EENTRO =        -0.00000000
  eigenvalues    EBANDS =     -2772.92114086
  atomic energy  EATOM  =      8369.52358910
  ---------------------------------------------------
  free energy    TOTEN  =      -523.35071969 eV

  energy without entropy =     -523.35071969  energy(sigma->0) =     -523.35071969


--------------------------------------------------------------------------------------------------------




--------------------------------------- Iteration      1(  21)  ---------------------------------------


    POTLOK:  cpu time    1.6843: real time    1.6944
    SETDIJ:  cpu time    0.2007: real time    0.2014
    TRIAL :  cpu time   19.6653: real time   19.8057
    CORREC:  cpu time    8.8540: real time    8.9167
    CHARGE:  cpu time    2.9505: real time    2.9764
    --------------------------------------------
      LOOP:  cpu time   33.3946: real time   33.6448

 eigenvalue-minimisations  :     0
 total energy-change (2. order) :-0.1037319E-05  (-0.3886526E-06)
 number of electron     216.0000000 magnetization 
 augmentation part       -0.5317292 magnetization 

 Free energy of the ion-electron system (eV)
  ---------------------------------------------------
  alpha Z        PSCENC =        47.94900195
  Ewald energy   TEWEN  =     46249.24210674
  -Hartree energ DENC   =    -53216.38921397
  -exchange      EXHF   =         0.00000000
  -V(xc)+E(xc)   XCENC  =       657.71096738
  PAW double counting   =    158658.03712821  -158516.51019171
  entropy T*S    EENTRO =        -0.00000000
  eigenvalues    EBANDS =     -2772.91410843
  atomic energy  EATOM  =      8369.52358910
  ---------------------------------------------------
  free energy    TOTEN  =      -523.35072072 eV

  energy without entropy =     -523.35072072  energy(sigma->0) =     -523.35072072


--------------------------------------------------------------------------------------------------------




--------------------------------------- Iteration      1(  22)  ---------------------------------------


    POTLOK:  cpu time    1.6878: real time    1.6976
    SETDIJ:  cpu time    0.1993: real time    0.2000
    TRIAL :  cpu time   19.6721: real time   19.8179
    CORREC:  cpu time    8.8463: real time    8.9090
    CHARGE:  cpu time    2.9558: real time    2.9762
    --------------------------------------------
      LOOP:  cpu time   33.3844: real time   33.6392

 eigenvalue-minimisations  :     0
 total energy-change (2. order) :-0.3612658E-06  (-0.2186521E-06)
 number of electron     216.0000000 magnetization 
 augmentation part       -0.5317201 magnetization 

 Free energy of the ion-electron system (eV)
  ---------------------------------------------------
  alpha Z        PSCENC =        47.94900195
  Ewald energy   TEWEN  =     46249.24210674
  -Hartree energ DENC   =    -53216.38752659
  -exchange      EXHF   =         0.00000000
  -V(xc)+E(xc)   XCENC  =       657.71087007
  PAW double counting   =    158662.77001530  -158521.24312879
  entropy T*S    EENTRO =        -0.00000000
  eigenvalues    EBANDS =     -2772.91564887
  atomic energy  EATOM  =      8369.52358910
  ---------------------------------------------------
  free energy    TOTEN  =      -523.35072109 eV

  energy without entropy =     -523.35072109  energy(sigma->0) =     -523.35072109


--------------------------------------------------------------------------------------------------------




--------------------------------------- Iteration      1(  23)  ---------------------------------------


    POTLOK:  cpu time    1.6857: real time    1.6958
    SETDIJ:  cpu time    0.2003: real time    0.2010
    TRIAL :  cpu time   19.6756: real time   19.8209
    CORREC:  cpu time    8.8200: real time    8.8972
    CHARGE:  cpu time    2.9540: real time    2.9747
    --------------------------------------------
      LOOP:  cpu time   33.3762: real time   33.6493

 eigenvalue-minimisations  :     0
 total energy-change (2. order) :-0.1363223E-06  (-0.1977564E-06)
 number of electron     216.0000000 magnetization 
 augmentation part       -0.5317201 magnetization 

 Free energy of the ion-electron system (eV)
  ---------------------------------------------------
  alpha Z        PSCENC =        47.94900195
  Ewald energy   TEWEN  =     46249.24210674
  -Hartree energ DENC   =    -53216.38583921
  -exchange      EXHF   =         0.00000000
  -V(xc)+E(xc)   XCENC  =       657.71087073
  PAW double counting   =    158666.03559527  -158524.50878285
  entropy T*S    EENTRO =        -0.00000000
  eigenvalues    EBANDS =     -2772.91726296
  atomic energy  EATOM  =      8369.52358910
  ---------------------------------------------------
  free energy    TOTEN  =      -523.35072122 eV

  energy without entropy =     -523.35072122  energy(sigma->0) =     -523.35072122


--------------------------------------------------------------------------------------------------------




--------------------------------------- Iteration      1(  24)  ---------------------------------------


    POTLOK:  cpu time    1.6825: real time    1.6921
    SETDIJ:  cpu time    0.2076: real time    0.2083
    TRIAL :  cpu time   19.6558: real time   19.8013
    CORREC:  cpu time    8.8591: real time    8.9245
    CHARGE:  cpu time    2.9521: real time    2.9738
    --------------------------------------------
      LOOP:  cpu time   33.3812: real time   33.6359

 eigenvalue-minimisations  :     0
 total energy-change (2. order) : 0.2305605E-06  (-0.2554351E-06)
 number of electron     216.0000000 magnetization 
 augmentation part       -0.5317182 magnetization 

 Free energy of the ion-electron system (eV)
  ---------------------------------------------------
  alpha Z        PSCENC =        47.94900195
  Ewald energy   TEWEN  =     46249.24210674
  -Hartree energ DENC   =    -53216.37854685
  -exchange      EXHF   =         0.00000000
  -V(xc)+E(xc)   XCENC  =       657.71053778
  PAW double counting   =    158669.94997663  -158528.42316629
  entropy T*S    EENTRO =        -0.00000000
  eigenvalues    EBANDS =     -2772.92422006
  atomic energy  EATOM  =      8369.52358910
  ---------------------------------------------------
  free energy    TOTEN  =      -523.35072099 eV

  energy without entropy =     -523.35072099  energy(sigma->0) =     -523.35072099


--------------------------------------------------------------------------------------------------------




--------------------------------------- Iteration      1(  25)  ---------------------------------------


    POTLOK:  cpu time    1.6843: real time    1.6943
    SETDIJ:  cpu time    0.2031: real time    0.2039
    TRIAL :  cpu time   19.6512: real time   19.8072
    CORREC:  cpu time   35.3526: real time   35.6090
    CHARGE:  cpu time    2.9451: real time    2.9669
    --------------------------------------------
      LOOP:  cpu time   59.8735: real time   60.3223

 eigenvalue-minimisations  :     0
 total energy-change (2. order) :-0.2160668E-06  (-0.6124219E-06)
 number of electron     216.0000000 magnetization 
 augmentation part       -0.5317557 magnetization 

 Free energy of the ion-electron system (eV)
  ---------------------------------------------------
  alpha Z        PSCENC =        47.94900195
  Ewald energy   TEWEN  =     46249.24210674
  -Hartree energ DENC   =    -53216.38398763
  -exchange      EXHF   =         0.00000000
  -V(xc)+E(xc)   XCENC  =       657.71094176
  PAW double counting   =    158669.03903503  -158527.51227815
  entropy T*S    EENTRO =        -0.00000000
  eigenvalues    EBANDS =     -2772.91913001
  atomic energy  EATOM  =      8369.52358910
  ---------------------------------------------------
  free energy    TOTEN  =      -523.35072121 eV

  energy without entropy =     -523.35072121  energy(sigma->0) =     -523.35072121


--------------------------------------------------------------------------------------------------------




--------------------------------------- Iteration      1(  26)  ---------------------------------------


    POTLOK:  cpu time    1.6837: real time    1.6939
    SETDIJ:  cpu time    0.2035: real time    0.2043
    TRIAL :  cpu time   19.6422: real time   19.7955
    CORREC:  cpu time    8.8508: real time    8.9148
    CHARGE:  cpu time    2.9518: real time    2.9759
    --------------------------------------------
      LOOP:  cpu time   33.3783: real time   33.6691

 eigenvalue-minimisations  :     0
 total energy-change (2. order) : 0.1138222E-05  (-0.1162282E-05)
 number of electron     216.0000000 magnetization 
 augmentation part       -0.5317330 magnetization 

 Free energy of the ion-electron system (eV)
  ---------------------------------------------------
  alpha Z        PSCENC =        47.94900195
  Ewald energy   TEWEN  =     46249.24210674
  -Hartree energ DENC   =    -53216.36279591
  -exchange      EXHF   =         0.00000000
  -V(xc)+E(xc)   XCENC  =       657.70935054
  PAW double counting   =    158663.16377354  -158521.63659775
  entropy T*S    EENTRO =        -0.00000000
  eigenvalues    EBANDS =     -2772.93914829
  atomic energy  EATOM  =      8369.52358910
  ---------------------------------------------------
  free energy    TOTEN  =      -523.35072007 eV

  energy without entropy =     -523.35072007  energy(sigma->0) =     -523.35072007


--------------------------------------------------------------------------------------------------------




--------------------------------------- Iteration      1(  27)  ---------------------------------------


    POTLOK:  cpu time    1.6833: real time    1.6950
    SETDIJ:  cpu time    0.2020: real time    0.2028
    TRIAL :  cpu time   19.6180: real time   19.7819
    CORREC:  cpu time    8.8442: real time    8.9044
    CHARGE:  cpu time    2.9489: real time    2.9700
    --------------------------------------------
      LOOP:  cpu time   33.3367: real time   33.5985

 eigenvalue-minimisations  :     0
 total energy-change (2. order) :-0.1179607E-05  (-0.1486499E-06)
 number of electron     216.0000000 magnetization 
 augmentation part       -0.5317313 magnetization 

 Free energy of the ion-electron system (eV)
  ---------------------------------------------------
  alpha Z        PSCENC =        47.94900195
  Ewald energy   TEWEN  =     46249.24210674
  -Hartree energ DENC   =    -53216.38881280
  -exchange      EXHF   =         0.00000000
  -V(xc)+E(xc)   XCENC  =       657.71105615
  PAW double counting   =    158663.03094940  -158521.50408732
  entropy T*S    EENTRO =        -0.00000000
  eigenvalues    EBANDS =     -2772.91452448
  atomic energy  EATOM  =      8369.52358910
  ---------------------------------------------------
  free energy    TOTEN  =      -523.35072125 eV

  energy without entropy =     -523.35072125  energy(sigma->0) =     -523.35072125


--------------------------------------------------------------------------------------------------------




--------------------------------------- Iteration      1(  28)  ---------------------------------------


    POTLOK:  cpu time    1.6846: real time    1.6945
    SETDIJ:  cpu time    0.2020: real time    0.2027
    TRIAL :  cpu time   19.6582: real time   19.8034
    CORREC:  cpu time    8.8469: real time    8.9083
    CHARGE:  cpu time    2.9617: real time    2.9839
    --------------------------------------------
      LOOP:  cpu time   33.3954: real time   33.6514

 eigenvalue-minimisations  :     0
 total energy-change (2. order) :-0.1237495E-06  (-0.4777840E-07)
 number of electron     216.0000000 magnetization 
 augmentation part       -0.5317263 magnetization 

 Free energy of the ion-electron system (eV)
  ---------------------------------------------------
  alpha Z        PSCENC =        47.94900195
  Ewald energy   TEWEN  =     46249.24210674
  -Hartree energ DENC   =    -53216.38250404
  -exchange      EXHF   =         0.00000000
  -V(xc)+E(xc)   XCENC  =       657.71074696
  PAW double counting   =    158663.44021662  -158521.91333976
  entropy T*S    EENTRO =        -0.00000000
  eigenvalues    EBANDS =     -2772.92053895
  atomic energy  EATOM  =      8369.52358910
  ---------------------------------------------------
  free energy    TOTEN  =      -523.35072137 eV

  energy without entropy =     -523.35072137  energy(sigma->0) =     -523.35072137


--------------------------------------------------------------------------------------------------------




--------------------------------------- Iteration      1(  29)  ---------------------------------------


[...]
      9     -22.6873      2.00000
     10     -20.7454      2.00000
     11     -20.7453      2.00000
     12     -20.7441      2.00000
     13     -20.7436      2.00000
     14     -20.7430      2.00000
     15     -20.7428      2.00000
     16     -19.8021      2.00000
     17     -19.8017      2.00000
     18     -19.8015      2.00000
     19     -19.8010      2.00000
     20     -19.8006      2.00000
     21     -19.8001      2.00000
     22     -17.5622      2.00000
     23     -17.5618      2.00000
     24     -17.5614      2.00000
     25     -17.5607      2.00000
     26     -17.5582      2.00000
     27     -17.5580      2.00000
     28     -16.3935      2.00000
     29     -16.3932      2.00000
     30     -16.3919      2.00000
     31     -16.3917      2.00000
     32     -16.3914      2.00000
     33     -16.3914      2.00000
     34     -14.9863      2.00000
     35     -14.9862      2.00000
     36     -14.9858      2.00000
     37     -14.9854      2.00000
     38     -14.9854      2.00000
     39     -14.9844      2.00000
     40     -13.2097      2.00000
     41     -12.4942      2.00000
     42     -12.4941      2.00000
     43     -12.4933      2.00000
     44     -12.4933      2.00000
     45     -12.4928      2.00000
     46     -12.4928      2.00000
     47     -12.2879      2.00000
     48     -12.2878      2.00000
     49     -12.2863      2.00000
     50     -12.2862      2.00000
     51     -12.2845      2.00000
     52     -12.2842      2.00000
     53     -11.8655      2.00000
     54     -11.6742      2.00000
     55     -11.6682      2.00000
     56     -10.9754      2.00000
     57     -10.8238      2.00000
     58     -10.8236      2.00000
     59     -10.8230      2.00000
     60     -10.8228      2.00000
     61     -10.8220      2.00000
     62     -10.8220      2.00000
     63      -9.8070      2.00000
     64      -9.8042      2.00000
     65      -9.7983      2.00000
     66      -9.7980      2.00000
     67      -9.7950      2.00000
     68      -9.7943      2.00000
     69      -9.4940      2.00000
     70      -9.4921      2.00000
     71      -9.4918      2.00000
     72      -9.4902      2.00000
     73      -9.4900      2.00000
     74      -9.4898      2.00000
     75      -9.4863      2.00000
     76      -9.4863      2.00000
     77      -9.4859      2.00000
     78      -9.4848      2.00000
     79      -9.4841      2.00000
     80      -9.4836      2.00000
     81      -8.0362      2.00000
     82      -8.0323      2.00000
     83      -7.7472      2.00000
     84      -7.7471      2.00000
     85      -7.7465      2.00000
     86      -7.7464      2.00000
     87      -7.7433      2.00000
     88      -7.7433      2.00000
     89      -7.5563      2.00000
     90      -7.5557      2.00000
     91      -7.5510      2.00000
     92      -7.5497      2.00000
     93      -7.5496      2.00000
     94      -7.5471      2.00000
     95      -6.6108      2.00000
     96      -6.6089      2.00000
     97      -6.6079      2.00000
     98      -6.6048      2.00000
     99      -6.6043      2.00000
    100      -6.6038      2.00000
    101      -6.1756      2.00000
    102      -6.1733      2.00000
    103      -4.5109      2.00000
    104      -4.5098      2.00000
    105      -4.5081      2.00000
    106      -4.5073      2.00000
    107      -4.5034      2.00000
    108      -4.5032      2.00000
    109      -1.5174      0.00000
    110      -1.5172      0.00000
    111      -1.5129      0.00000
    112      -1.5127      0.00000
    113      -1.5114      0.00000
    114      -1.5110      0.00000
    115       0.4737      0.00000
    116       0.4745      0.00000
    117       0.4759      0.00000
    118       0.4793      0.00000
    119       0.4798      0.00000
    120       0.4830      0.00000
    121       0.5580      0.00000
    122       1.1410      0.00000
    123       1.1822      0.00000
    124       1.1825      0.00000
    125       1.4979      0.00000
    126       1.6824      0.00000
    127       1.9702      0.00000
    128       2.0427      0.00000
    129       2.0532      0.00000
    130       2.0557      0.00000
    131       2.0863      0.00000
    132       2.1015      0.00000
    133       2.2926      0.00000
    134       2.3419      0.00000
    135       2.3427      0.00000
    136       2.3466      0.00000
    137       2.3475      0.00000
    138       2.3517      0.00000
    139       2.3579      0.00000
    140       2.4706      0.00000
    141       2.6392      0.00000
    142       2.7210      0.00000
    143       2.7349      0.00000
    144       2.7384      0.00000
    145       2.7570      0.00000
    146       2.8195      0.00000
    147       2.8213      0.00000
    148       2.8275      0.00000
    149       2.9105      0.00000
    150       2.9455      0.00000
    151       3.0324      0.00000
    152       3.3380      0.00000
    153       3.4526      0.00000
    154       3.4650      0.00000
    155       3.5396      0.00000
    156       3.6210      0.00000
    157       3.7102      0.00000
    158       3.7234      0.00000
    159       3.7278      0.00000
    160       3.9759      0.00000
    161       4.2663      0.00000
    162       4.3237      0.00000
    163       4.8207      0.00000
    164       4.8296      0.00000
    165       4.8395      0.00000
    166       4.8510      0.00000
    167       4.8529      0.00000
    168       4.8681      0.00000


--------------------------------------------------------------------------------------------------------


 soft charge-density along one line, spin component           1
         0         1         2         3         4         5         6         7         8         9
 total charge-density along one line
 
 pseudopotential strength for first ion, spin component:           1
 12.639  21.267  -0.000   0.000   0.000  -0.000   0.000   0.000
 21.267  35.783  -0.000   0.000   0.000  -0.000   0.000   0.000
 -0.000  -0.000  -3.235  -0.000   0.000  -5.794   0.000   0.000
  0.000   0.000  -0.000  -3.235  -0.000   0.000  -5.793  -0.000
  0.000   0.000   0.000  -0.000  -3.235   0.000  -0.000  -5.794
 -0.000  -0.000  -5.794   0.000   0.000 -10.354   0.000   0.000
  0.000   0.000   0.000  -5.793  -0.000   0.000 -10.353  -0.000
  0.000   0.000   0.000  -0.000  -5.794   0.000  -0.000 -10.354
 total augmentation occupancy for first ion, spin component:           1
 10.263  -3.894  -0.000  -0.002   0.000   0.000   0.001  -0.000
 -3.894   1.507   0.000   0.001  -0.000  -0.000  -0.000   0.000
 -0.000   0.000   8.468  -0.009   0.000  -3.024   0.003  -0.000
 -0.002   0.001  -0.009   4.016  -0.000   0.004  -1.207   0.000
  0.000  -0.000   0.000  -0.000   8.468  -0.000   0.000  -3.024
  0.000  -0.000  -3.024   0.004  -0.000   1.093  -0.001   0.000
  0.001  -0.000   0.003  -1.207   0.000  -0.001   0.368  -0.000
 -0.000   0.000  -0.000   0.000  -3.024   0.000  -0.000   1.092


------------------------ aborting loop because EDIFF is reached ----------------------------------------


    FORLOC:  cpu time    0.1417: real time    0.1428
    FORNL :  cpu time    3.8437: real time    3.8747
    FORCOR:  cpu time    1.6153: real time    1.6261
    OFIELD:  cpu time    0.0029: real time    0.0029

 VOLUME and BASIS-vectors are now :
 -----------------------------------------------------------------------------
  energy-cutoff  :     1000.00
  volume of cell :     3288.85
      direct lattice vectors                 reciprocal lattice vectors
    12.325000000  0.000000000  0.000000000     0.081135903  0.046843835  0.000000000
    -6.162500000 10.673763102  0.000000000     0.000000000  0.093687670  0.000000000
     0.000000000  0.000000000 25.000000000     0.000000000  0.000000000  0.040000000

  length of vectors
    12.325000000 12.325000000 25.000000000     0.093687670  0.093687670  0.040000000


 FORCES acting on ions:
    Electron-Ion                     Ewald-Force                    Non-Local-Force
 -----------------------------------------------------------------------------------------------
   0.757E+01 0.662E+01 0.256E+02   -.758E+01 -.661E+01 -.256E+02   0.119E-01 -.249E-02 0.880E-02
   0.118E+02 0.575E+01 0.312E+02   -.118E+02 -.575E+01 -.312E+02   0.165E-01 -.783E-02 -.854E-02
   0.543E+01 0.142E+02 0.363E+02   -.543E+01 -.142E+02 -.363E+02   -.190E-02 0.311E-01 0.155E-01
   0.786E+01 0.114E+02 0.508E+02   -.788E+01 -.114E+02 -.509E+02   0.308E-01 0.106E-01 0.357E-01
   0.816E+01 0.192E+01 0.258E+02   -.816E+01 -.192E+01 -.258E+02   0.455E-02 -.126E-01 -.449E-02
   0.847E+01 -.153E+01 0.262E+02   -.846E+01 0.154E+01 -.262E+02   -.107E-01 -.377E-03 -.142E-01
   0.142E+02 0.541E+01 0.457E+02   -.142E+02 -.538E+01 -.457E+02   0.359E-01 -.356E-01 0.286E-02
   0.138E+02 -.482E+01 0.476E+02   -.138E+02 0.484E+01 -.476E+02   0.110E-01 -.198E-01 -.260E-01
   -.624E+01 0.129E+02 0.367E+02   0.626E+01 -.129E+02 -.367E+02   -.138E-01 -.284E-02 -.189E-01
   -.104E+02 0.877E+01 0.492E+02   0.104E+02 -.880E+01 -.491E+02   -.543E-01 0.334E-01 0.225E-02
   0.206E+01 -.191E+01 0.219E+02   -.205E+01 0.190E+01 -.219E+02   -.980E-03 -.623E-04 -.536E-02
   0.169E+01 -.139E+01 0.207E+02   -.169E+01 0.139E+01 -.207E+02   -.129E-01 0.564E-02 0.215E-02
   0.547E+01 -.122E+02 0.525E+02   -.551E+01 0.122E+02 -.525E+02   0.568E-01 -.253E-01 -.210E-02
   0.279E+01 -.142E+02 0.372E+02   -.281E+01 0.142E+02 -.371E+02   0.177E-01 -.259E-02 -.277E-01
   -.729E+01 0.455E+01 0.251E+02   0.729E+01 -.455E+01 -.251E+02   0.101E-01 -.498E-02 -.480E-02
   -.104E+02 0.302E+01 0.281E+02   0.104E+02 -.302E+01 -.281E+02   -.579E-02 0.109E-01 -.199E-01
   -.118E+01 -.476E+00 0.200E+02   0.119E+01 0.472E+00 -.200E+02   -.572E-02 0.205E-02 0.103E-02
   0.607E+00 0.424E+01 0.210E+02   -.601E+00 -.424E+01 -.210E+02   -.729E-02 0.401E-02 0.919E-02
   -.209E+01 -.125E+02 0.303E+02   0.208E+01 0.125E+02 -.303E+02   0.167E-01 -.765E-02 0.112E-02
   -.984E+00 -.648E+01 0.228E+02   0.975E+00 0.649E+01 -.228E+02   0.547E-02 -.536E-02 -.222E-02
   0.119E+02 -.523E+01 0.331E+02   -.119E+02 0.524E+01 -.330E+02   0.194E-02 -.745E-02 -.387E-01
   0.748E+01 -.636E+01 0.276E+02   -.748E+01 0.636E+01 -.276E+02   -.885E-02 0.875E-02 -.172E-01
   -.267E+01 0.544E+01 0.602E+02   0.269E+01 -.546E+01 -.602E+02   -.276E-01 0.259E-01 0.702E-01
   -.402E+01 -.858E+01 0.582E+02   0.401E+01 0.860E+01 -.582E+02   0.217E-01 -.360E-01 0.530E-01
   0.367E+01 -.156E+01 0.220E+02   -.366E+01 0.155E+01 -.220E+02   -.303E-02 -.561E-04 -.960E-02
   0.736E+00 0.326E+01 0.222E+02   -.730E+00 -.326E+01 -.222E+02   -.110E-01 0.611E-02 0.411E-04
   -.146E+02 0.189E+01 0.394E+02   0.146E+02 -.190E+01 -.394E+02   -.390E-02 0.182E-01 -.153E-01
   -.138E+02 -.566E+01 0.368E+02   0.138E+02 0.564E+01 -.368E+02   -.268E-01 0.189E-01 0.595E-02
   0.451E+01 -.913E+01 0.286E+02   -.452E+01 0.913E+01 -.286E+02   0.117E-01 0.290E-02 -.209E-01
   0.414E+00 -.359E+01 0.232E+02   -.420E+00 0.358E+01 -.232E+02   -.109E-02 0.486E-02 -.917E-02
   -.107E+02 -.113E+02 0.433E+02   0.107E+02 0.114E+02 -.433E+02   -.299E-01 -.185E-01 0.186E-01
   -.661E+01 -.121E+02 0.318E+02   0.661E+01 0.121E+02 -.319E+02   0.656E-03 -.162E-01 0.114E-01
   0.455E+00 0.182E+01 0.206E+02   -.460E+00 -.182E+01 -.206E+02   0.105E-01 -.725E-02 0.427E-02
   0.124E+01 0.182E+01 0.218E+02   -.124E+01 -.182E+01 -.218E+02   -.108E-03 0.110E-02 -.575E-02
   -.512E+01 0.704E+00 0.234E+02   0.512E+01 -.708E+00 -.234E+02   0.589E-02 -.577E-04 -.124E-02
   -.446E+01 -.182E+01 0.229E+02   0.446E+01 0.181E+01 -.229E+02   -.969E-02 0.628E-02 -.145E-02
   -.889E+01 -.462E+01 0.260E+02   0.891E+01 0.462E+01 -.260E+02   -.119E-01 0.294E-02 0.147E-02
   -.534E+01 -.431E+01 0.226E+02   0.535E+01 0.431E+01 -.226E+02   -.959E-02 0.228E-02 0.101E-01
   -.496E+01 -.645E+01 0.239E+02   0.497E+01 0.645E+01 -.239E+02   -.879E-02 -.392E-02 0.776E-02
   -.741E+00 -.158E+01 0.211E+02   0.741E+00 0.158E+01 -.211E+02   0.298E-02 -.143E-02 0.871E-02
   0.186E+01 0.453E+01 0.218E+02   -.186E+01 -.454E+01 -.218E+02   -.492E-02 0.688E-02 0.854E-02
   0.600E+01 0.941E+01 0.268E+02   -.601E+01 -.941E+01 -.268E+02   0.682E-02 0.620E-02 0.130E-01
   0.497E+00 0.789E+01 0.236E+02   -.487E+00 -.790E+01 -.236E+02   -.658E-02 0.694E-02 -.758E-03
   -.503E-01 0.137E+02 0.322E+02   0.684E-01 -.137E+02 -.322E+02   -.219E-01 0.105E-01 0.459E-02
   -.149E+01 0.293E+01 0.231E+02   0.150E+01 -.293E+01 -.231E+02   0.197E-02 -.438E-02 -.607E-02
   -.608E+01 0.763E+01 0.273E+02   0.609E+01 -.763E+01 -.272E+02   -.119E-01 0.163E-02 -.155E-01
   -.115E+01 -.314E+01 0.217E+02   0.114E+01 0.314E+01 -.217E+02   0.122E-01 -.283E-02 0.177E-02
   -.289E+01 0.114E+01 0.210E+02   0.288E+01 -.114E+01 -.210E+02   0.253E-02 0.135E-02 -.808E-02
   0.255E+00 -.196E+01 0.208E+02   -.259E+00 0.196E+01 -.208E+02   0.763E-02 -.420E-02 0.618E-02
   0.309E+01 0.225E+01 0.210E+02   -.310E+01 -.225E+01 -.210E+02   0.577E-02 0.104E-02 0.307E-02
   0.650E-01 -.437E-01 -.375E+03   -.617E-01 0.426E-01 0.375E+03   -.461E-02 0.285E-02 -.239E-01
   -.228E+03 0.155E+03 -.575E+03   0.279E+03 -.190E+03 0.578E+03   -.523E+02 0.356E+02 -.349E+01
   0.228E+03 -.155E+03 -.553E+03   -.279E+03 0.190E+03 0.550E+03   0.523E+02 -.356E+02 0.317E+01
 -----------------------------------------------------------------------------------------------
   0.415E-02 0.690E-02 0.316E+00   0.114E-12 -.114E-12 0.000E+00   -.454E-02 -.726E-02 -.313E+00
 
 
 POSITION                                       TOTAL-FORCE (eV/Angst)
 -----------------------------------------------------------------------------------
     11.98348      0.00342      0.01417         0.002800     -0.000510     -0.001919
     -0.34154      1.42665      0.01100        -0.003052     -0.000378     -0.003002
      2.12355      0.00315      0.01249        -0.000941      0.002775     -0.005138
      2.12326      1.42653      0.00641         0.005058     -0.001854      0.000770
     10.75099      2.13819      0.01213         0.000957     -0.004684     -0.000013
     -1.57382      3.56123      0.01110        -0.006569      0.005478     -0.001579
      0.89078      2.13854      0.00548         0.003096     -0.011717      0.005906
      0.89099      3.56147      0.00181        -0.013579      0.000449      0.014943
      4.58864      0.00346      0.01135         0.005101     -0.015511     -0.002696
      4.58894      1.42623      0.00646        -0.012140      0.006724      0.018232
      9.51854      4.27281      0.01369         0.007585     -0.004195      0.000005
     -2.80632      5.69591      0.01434        -0.006956      0.003441      0.000754
      2.12300      4.27302      0.00000         0.012971     -0.000108      0.025533
      2.12335      5.69594      0.00581        -0.002160      0.009086     -0.000780
      7.05344      0.00333      0.01399         0.007653     -0.004363     -0.000501
      7.05353      1.42635      0.01368        -0.002277      0.004278     -0.003791
      8.28610      6.40752      0.01601         0.003696     -0.001328     -0.001022
     -4.03885      7.83070      0.01636        -0.001982      0.001451     -0.000604
      3.35586      6.40753      0.01007         0.002700      0.000397     -0.001658
      3.35599      7.83072      0.01320        -0.003207      0.000913     -0.000629
     -0.34146      4.27290      0.00723        -0.000159     -0.001515     -0.003260
     -0.34138      5.69591      0.00946        -0.007978      0.004292     -0.000820
      3.35624      2.13791      0.00222        -0.006793      0.005576      0.030695
      3.35573      3.56155      0.00139         0.008709     -0.007701      0.021793
     -1.57395      6.40758      0.01311         0.007630     -0.004292     -0.000852
     -1.57385      7.83068      0.01438        -0.005021      0.004129     -0.000133
      5.82093      2.13784      0.01033         0.016196      0.002468     -0.001944
      5.82114      3.56097      0.01156        -0.002591      0.004604     -0.003160
      0.89092      6.40755      0.00907         0.004030      0.000972     -0.001739
      0.89106      7.83068      0.01235        -0.007497      0.002325      0.000126
      4.58871      4.27293      0.00850        -0.004667     -0.002421     -0.006313
      4.58852      5.69606      0.01149         0.002044      0.003024     -0.003895
      9.51845      0.00337      0.01490         0.004967     -0.005025     -0.000004
      9.51855      1.42644      0.01438        -0.004936      0.006720     -0.000667
      8.28593      2.13803      0.01453         0.005042     -0.004397      0.000238
      8.28613      3.56115      0.01464        -0.004533      0.001740     -0.000209
      7.05356      4.27269      0.01457         0.004163     -0.000457     -0.000814
      7.05362      5.69588      0.01553        -0.002378      0.000711     -0.000665
      5.82112      6.40755      0.01489        -0.001943      0.002345     -0.000550
      5.82102      7.83073      0.01579         0.002720      0.000762     -0.000704
      7.05363      8.54227      0.01631        -0.004341      0.000470      0.000687
     -5.27149      9.96549      0.01495        -0.001239     -0.002947     -0.002990
     -2.80638      8.54234      0.01558         0.003389     -0.002097     -0.001544
     -2.80627      9.96553      0.01362        -0.003668     -0.000092     -0.004478
     -0.34149      8.54239      0.01378         0.005948     -0.003401      0.000009
     -0.34138      9.96550      0.01354        -0.005753      0.001457     -0.001240
      2.12343      8.54232      0.01336         0.005865     -0.001800      0.000795
      2.12354      9.96544      0.01469        -0.006733      0.004746     -0.002288
      4.58846      8.54235      0.01505         0.003591     -0.003050      0.000685
      4.58853      9.96550      0.01517        -0.003429      0.003360      0.000005
      3.04930      2.68154      3.96850        -0.001300      0.001574     -0.000966
      4.02070      2.02068      4.03292        -1.413972      0.962310     -0.117871
      2.07767      3.34267      3.90905         1.415884     -0.964735      0.059257
 -----------------------------------------------------------------------------------
    total drift:                               -0.000396     -0.000362      0.003443


--------------------------------------------------------------------------------------------------------



  FREE ENERGIE OF THE ION-ELECTRON SYSTEM (eV)
  ---------------------------------------------------
  free  energy   TOTEN  =      -523.35072137 eV

  energy  without entropy=     -523.35072137  energy(sigma->0) =     -523.35072137
 


--------------------------------------------------------------------------------------------------------


    POTLOK:  cpu time    1.8890: real time    1.9012


--------------------------------------------------------------------------------------------------------


 writing wavefunctions
     LOOP+:  cpu time 1038.2953: real time 1046.6788
    4ORBIT:  cpu time    0.0000: real time    0.0000

 total amount of memory used by VASP MPI-rank0   698619. kBytes
=======================================================================

   base      :      30000. kBytes
   nonl-proj :     230539. kBytes
   fftplans  :      40716. kBytes
   grid      :     363125. kBytes
   one-center:        162. kBytes
   wavefun   :      34077. kBytes
 
  
  
 General timing and accounting informations for this job:
 ========================================================
  
                  Total CPU time used (sec):     1080.622
                            User time (sec):     1051.535
                          System time (sec):       29.086
                         Elapsed time (sec):     1090.853
  
                   Maximum memory used (kb):     1284588.
                   Average memory used (kb):          N/A
  
                          Minor page faults:       167954
                          Major page faults:           81
                 Voluntary context switches:         3913
