 vasp.6.2.1 16May21 (build Nov 06 2021 14:46:37) complex                        
  
 executed on             LinuxIFC date 2025.04.16  22:15:15
 running on  112 total cores
 distrk:  each k-point on   56 cores,    2 groups
 distr:  one band on NCORE=   1 cores,   56 groups


--------------------------------------------------------------------------------------------------------


 INCAR:
   ALGO = Conjugate
   KPAR = 2
   NCORE = 32
   ISMEAR = 0
   SIGMA = 0.01
   PREC = Accurate
   EDIFF = 1E-7
   ENCUT = 1000
   ISIF = 0
   METAGGA = R2SCAN
   LASPH = .TRUE.
   SYMPREC = 1E-7

 POTCAR:    PAW_PBE C_h 06Feb2004                 
 POTCAR:    PAW_PBE O_h 06Feb2004                 
 -----------------------------------------------------------------------------
|                                                                             |
|           W    W    AA    RRRRR   N    N  II  N    N   GGGG   !!!           |
|           W    W   A  A   R    R  NN   N  II  NN   N  G    G  !!!           |
|           W    W  A    A  R    R  N N  N  II  N N  N  G       !!!           |
|           W WW W  AAAAAA  RRRRR   N  N N  II  N  N N  G  GGG   !            |
|           WW  WW  A    A  R   R   N   NN  II  N   NN  G    G                |
|           W    W  A    A  R    R  N    N  II  N    N   GGGG   !!!           |
|                                                                             |
|     The value NCORE = 32 specified in the INCAR file was overwritten,       |
|     because it was not compatible with the 56 processes available:          |
|     NCORE = 1                                                               |
|     was used instead, please check that this makes sense for your           |
|     machine.                                                                |
|                                                                             |
 -----------------------------------------------------------------------------

 -----------------------------------------------------------------------------
|                                                                             |
|           W    W    AA    RRRRR   N    N  II  N    N   GGGG   !!!           |
|           W    W   A  A   R    R  NN   N  II  NN   N  G    G  !!!           |
|           W    W  A    A  R    R  N N  N  II  N N  N  G       !!!           |
|           W WW W  AAAAAA  RRRRR   N  N N  II  N  N N  G  GGG   !            |
|           WW  WW  A    A  R   R   N   NN  II  N   NN  G    G                |
|           W    W  A    A  R    R  N    N  II  N    N   GGGG   !!!           |
|                                                                             |
|     For optimal performance we recommend to set                             |
|       NCORE = 2 up to number-of-cores-per-socket                            |
|     NCORE specifies how many cores store one orbital (NPAR=cpu/NCORE).      |
|     This setting can greatly improve the performance of VASP for DFT.       |
|     The default, NCORE=1 might be grossly inefficient on modern             |
|     multi-core architectures or massively parallel machines. Do your        |
|     own testing! More info at https://www.vasp.at/wiki/index.php/NCORE      |
|     Unfortunately you need to use the default for GW and RPA                |
|     calculations (for HF NCORE is supported but not extensively tested      |
|     yet).                                                                   |
|                                                                             |
 -----------------------------------------------------------------------------

 POTCAR:    PAW_PBE C_h 06Feb2004                 
   VRHFIN =C: s2p2                                                                                  
   LEXCH  = PE                                                                                      
   EATOM  =   147.1560 eV,   10.8157 Ry                                                             
                                                                                                    
   TITEL  = PAW_PBE C_h 06Feb2004                                                                   
   LULTRA =        F    use ultrasoft PP ?                                                          
   IUNSCR =        1    unscreen: 0-lin 1-nonlin 2-no                                               
   RPACOR =    0.800    partial core radius                                                         
   POMASS =   12.011; ZVAL   =    4.000    mass and valenz                                          
   RCORE  =    1.100    outmost cutoff radius                                                       
   RWIGS  =    1.630; RWIGS  =    0.863    wigner-seitz radius (au A)                               
   ENMAX  =  700.000; ENMIN  =  500.000 eV                                                          
   ICORE  =        2    local potential                                                             
   LCOR   =        T    correct aug charges                                                         
   LPAW   =        T    paw PP                                                                      
   EAUG   =  946.768                                                                                
   DEXC   =    0.000                                                                                
   RMAX   =    1.128    core radius for proj-oper                                                   
   RAUG   =    1.300    factor for augmentation sphere                                              
   RDEP   =    1.162    radius for radial grids                                                     
   RDEPT  =    1.088    core radius for aug-charge                                                  
                                                                                                    
   Atomic configuration                                                                             
    4 entries                                                                                       
     n  l   j            E        occ.                                                              
     1  0  0.50      -273.3789   2.0000                                                             
     2  0  0.50       -13.7508   2.0000                                                             
     2  1  0.50        -5.2854   2.0000                                                             
     3  2  1.50        -5.4423   0.0000                                                             
   Description                                                                                      
     l       E           TYP  RCUT    TYP  RCUT                                                     
     0    -13.7508458     23  1.100                                                                 
     0     -8.2022199     23  1.100                                                                 
     1     -5.2854383     23  1.100                                                                 
     1      1.1560700     23  1.100                                                                 
     2     -5.4423304      7  1.100                                                                 
  local pseudopotential read in
  partial core-charges read in
  partial kinetic energy density read in
  atomic valenz-charges read in
  non local Contribution for L=           0  read in
    real space projection operators read in
  non local Contribution for L=           0  read in
    real space projection operators read in
  non local Contribution for L=           1  read in
    real space projection operators read in
  non local Contribution for L=           1  read in
    real space projection operators read in
    PAW grid and wavefunctions read in
 
   number of l-projection  operators is LMAX  =           4
   number of lm-projection operators is LMMAX =           8
 
 POTCAR:    PAW_PBE O_h 06Feb2004                 
   VRHFIN =O: s2p4                                                                                  
   LEXCH  = PE                                                                                      
   EATOM  =   432.3788 eV,   31.7789 Ry                                                             
                                                                                                    
   TITEL  = PAW_PBE O_h 06Feb2004                                                                   
   LULTRA =        F    use ultrasoft PP ?                                                          
   IUNSCR =        1    unscreen: 0-lin 1-nonlin 2-no                                               
   RPACOR =    0.800    partial core radius                                                         
   POMASS =   16.000; ZVAL   =    6.000    mass and valenz                                          
   RCORE  =    1.100    outmost cutoff radius                                                       
   RWIGS  =    1.400; RWIGS  =    0.741    wigner-seitz radius (au A)                               
   ENMAX  =  700.000; ENMIN  =  500.000 eV                                                          
   ICORE  =        2    local potential                                                             
   LCOR   =        T    correct aug charges                                                         
   LPAW   =        T    paw PP                                                                      
   EAUG   =  888.804                                                                                
   DEXC   =    0.000                                                                                
   RMAX   =    1.128    core radius for proj-oper                                                   
   RAUG   =    1.300    factor for augmentation sphere                                              
   RDEP   =    1.125    radius for radial grids                                                     
   RDEPT  =    1.088    core radius for aug-charge                                                  
                                                                                                    
   Atomic configuration                                                                             
    4 entries                                                                                       
     n  l   j            E        occ.                                                              
     1  0  0.50      -514.6923   2.0000                                                             
     2  0  0.50       -23.9615   2.0000                                                             
     2  1  0.50        -9.0305   4.0000                                                             
     3  2  1.50        -9.5241   0.0000                                                             
   Description                                                                                      
     l       E           TYP  RCUT    TYP  RCUT                                                     
     0    -23.9615319     23  1.100                                                                 
     0    -25.3221145     23  1.100                                                                 
     1     -9.0304911     23  1.100                                                                 
     1     -5.4802209     23  1.100                                                                 
     2     -9.5240782      7  1.100                                                                 
  local pseudopotential read in
  partial core-charges read in
  partial kinetic energy density read in
  atomic valenz-charges read in
  non local Contribution for L=           0  read in
    real space projection operators read in
  non local Contribution for L=           0  read in
    real space projection operators read in
  non local Contribution for L=           1  read in
    real space projection operators read in
  non local Contribution for L=           1  read in
    real space projection operators read in
    PAW grid and wavefunctions read in
 
   number of l-projection  operators is LMAX  =           4
   number of lm-projection operators is LMMAX =           8
 
 -----------------------------------------------------------------------------
|                                                                             |
|               ----> ADVICE to this user running VASP <----                  |
|                                                                             |
|     You have a (more or less) 'large supercell' and for larger cells it     |
|     might be more efficient to use real-space projection operators.         |
|     Therefore, try LREAL= Auto in the INCAR file.                           |
|     Mind: For very accurate calculation, you might also keep the            |
|     reciprocal projection scheme (i.e. LREAL=.FALSE.).                      |
|                                                                             |
 -----------------------------------------------------------------------------

  PAW_PBE C_h 06Feb2004                 :
 energy of atom  1       EATOM= -147.1560
 kinetic energy error for atom=    0.0031 (will be added to EATOM!!)
  PAW_PBE O_h 06Feb2004                 :
 energy of atom  2       EATOM= -432.3788
 kinetic energy error for atom=    0.0171 (will be added to EATOM!!)
 
 
 POSCAR:  C  O
  positions in cartesian coordinates
  No initial velocities read in

 METAGGA = R2SCA    LMAXTAU =  6    LMIXTAU =  F

 exchange correlation table for  LEXCH =        8
   RHO(1)=    0.500       N(1)  =     2000
   RHO(2)=  100.500       N(2)  =     4000
 


--------------------------------------------------------------------------------------------------------


 ion  position               nearest neighbor table
   1  0.972  0.000  0.001-  50 1.42   2 1.42  42 1.42
   2  0.039  0.134  0.000-   5 1.42   7 1.42   1 1.42
   3  0.172  0.000  0.000-  42 1.42  44 1.42   4 1.42
   4  0.239  0.134  0.000-   7 1.42   3 1.42  23 1.42
   5  0.972  0.200  0.000-   6 1.42   2 1.42  34 1.42
   6  0.039  0.334  0.000-   5 1.42  21 1.42  11 1.42
   7  0.172  0.200  0.000-   8 1.42   2 1.42   4 1.42
   8  0.239  0.334  0.000-  13 1.42   7 1.42  21 1.42
   9  0.372  0.000  0.000-  10 1.42  44 1.42  46 1.42
  10  0.439  0.134  0.000-  27 1.42   9 1.42  23 1.42
  11  0.972  0.400  0.001-  12 1.42  36 1.42   6 1.42
  12  0.039  0.534  0.001-  25 1.42  11 1.42  17 1.42
  13  0.372  0.400  0.000-   8 1.42  14 1.42  24 1.42
  14  0.439  0.534  0.000-  13 1.42  29 1.42  19 1.42
  15  0.572  0.000  0.001-  46 1.42  16 1.42  48 1.42
  16  0.639  0.134  0.001-  15 1.42  35 1.42  27 1.42
  17  0.972  0.600  0.001-  38 1.42  18 1.42  12 1.42
  18  0.039  0.734  0.001-  43 1.42  41 1.42  17 1.42
  19  0.572  0.600  0.000-  14 1.42  20 1.42  32 1.42
  20  0.639  0.734  0.001-  49 1.42  19 1.42  47 1.42
  21  0.172  0.400  0.000-  22 1.42   8 1.42   6 1.42
  22  0.239  0.534  0.000-  21 1.42  29 1.42  25 1.42
  23  0.372  0.200  0.000-  10 1.42   4 1.42  24 1.42
  24  0.439  0.334  0.000-  13 1.42  31 1.42  23 1.42
  25  0.172  0.600  0.001-  26 1.42  12 1.42  22 1.42
  26  0.239  0.734  0.001-  25 1.42  45 1.42  43 1.42
  27  0.572  0.200  0.000-  10 1.42  28 1.42  16 1.42
  28  0.639  0.334  0.000-  27 1.42  37 1.42  31 1.42
  29  0.372  0.600  0.000-  22 1.42  14 1.42  30 1.42
  30  0.439  0.734  0.000-  47 1.42  29 1.42  45 1.42
  31  0.572  0.400  0.000-  32 1.42  28 1.42  24 1.42
  32  0.639  0.534  0.000-  31 1.42  39 1.42  19 1.42
  33  0.772  0.000  0.001-  34 1.42  48 1.42  50 1.42
  34  0.839  0.134  0.001-  33 1.42   5 1.42  35 1.42
  35  0.772  0.200  0.001-  36 1.42  16 1.42  34 1.42
  36  0.839  0.334  0.001-  35 1.42  11 1.42  37 1.42
  37  0.772  0.400  0.001-  28 1.42  38 1.42  36 1.42
  38  0.839  0.534  0.001-  17 1.42  37 1.42  39 1.42
  39  0.772  0.600  0.001-  40 1.42  38 1.42  32 1.42
  40  0.839  0.734  0.001-  39 1.42  49 1.42  41 1.42
  41  0.972  0.800  0.001-  18 1.42  42 1.42  40 1.42
  42  0.039  0.934  0.001-   3 1.42  41 1.42   1 1.42
  43  0.172  0.800  0.001-  18 1.42  44 1.42  26 1.42
  44  0.239  0.934  0.001-   9 1.42  43 1.42   3 1.42
  45  0.372  0.800  0.001-  26 1.42  46 1.42  30 1.42
  46  0.439  0.934  0.001-  15 1.42  45 1.42   9 1.42
  47  0.572  0.800  0.001-  30 1.42  48 1.42  20 1.42
  48  0.639  0.934  0.001-  47 1.42  33 1.42  15 1.42
  49  0.772  0.800  0.001-  50 1.42  20 1.42  40 1.42
  50  0.839  0.934  0.001-  49 1.42   1 1.42  33 1.42
  51  0.373  0.251  0.300-  52 1.18  53 1.18
  52  0.421  0.189  0.302-  51 1.18
  53  0.325  0.313  0.297-  51 1.18
 
  LATTYP: Found a hexagonal cell.
 ALAT       =    12.3250000000
 C/A-ratio  =     2.0283975659
  
  Lattice vectors:
  
 A1 = (  12.3250000000,   0.0000000000,   0.0000000000)
 A2 = (  -6.1625000000,  10.6737631016,   0.0000000000)
 A3 = (   0.0000000000,   0.0000000000,  25.0000000000)


Analysis of symmetry for initial positions (statically):
=====================================================================
 Subroutine PRICEL returns:
 Original cell was already a primitive cell.
 

 Routine SETGRP: Setting up the symmetry group for a 
 hexagonal supercell.


 Subroutine GETGRP returns: Found  1 space group operations
 (whereof  1 operations were pure point group operations)
 out of a pool of 24 trial point group operations.


The static configuration has the point symmetry C_1 .


Analysis of symmetry for dynamics (positions and initial velocities):
=====================================================================
 Subroutine PRICEL returns:
 Original cell was already a primitive cell.
 

 Routine SETGRP: Setting up the symmetry group for a 
 hexagonal supercell.


 Subroutine GETGRP returns: Found  1 space group operations
 (whereof  1 operations were pure point group operations)
 out of a pool of 24 trial point group operations.


The dynamic configuration has the point symmetry C_1 .


 Subroutine INISYM returns: Found  1 space group operations
 (whereof  1 operations are pure point group operations),
 and found     1 'primitive' translations


----------------------------------------------------------------------------------------

                                     Primitive cell                                     

  volume of cell :    3288.8533

  direct lattice vectors                    reciprocal lattice vectors
    12.325000000  0.000000000  0.000000000     0.081135903  0.046843835  0.000000000
    -6.162500000 10.673763102  0.000000000     0.000000000  0.093687670  0.000000000
     0.000000000  0.000000000 25.000000000     0.000000000  0.000000000  0.040000000

  length of vectors
    12.325000000 12.325000000 25.000000000     0.093687670  0.093687670  0.040000000

  position of ions in fractional coordinates (direct lattice)
     0.972450841  0.000320818  0.000566711
     0.039118382  0.133659505  0.000440173
     0.172443627  0.000295449  0.000499628
     0.239096278  0.133647917  0.000256468
     0.972452058  0.200322012  0.000485219
     0.039128360  0.333643771  0.000444150
     0.172451764  0.200354552  0.000219167
     0.239124359  0.333665720  0.000072260
     0.372465565  0.000324403  0.000453913
     0.439137473  0.133619939  0.000258338
     0.972449824  0.400309362  0.000547611
     0.039124981  0.533636789  0.000573410
     0.372416176  0.400329481  0.000000000
     0.439099602  0.533638981  0.000232414
     0.572443676  0.000312125  0.000559580
     0.639110207  0.133631751  0.000547275
     0.972452703  0.600305653  0.000640289
     0.039124495  0.733640359  0.000654513
     0.572433471  0.600306242  0.000402895
     0.639111888  0.733641879  0.000527905
     0.172454630  0.400318228  0.000289045
     0.239120185  0.533636548  0.000378509
     0.372459750  0.200295993  0.000088997
     0.439107096  0.333673419  0.000055762
     0.172452155  0.600311506  0.000524340
     0.239123371  0.733638574  0.000575129
     0.572431082  0.200289171  0.000413296
     0.639112773  0.333618630  0.000462376
     0.372439808  0.600308022  0.000362844
     0.439116090  0.733637858  0.000494190
     0.572469358  0.400320504  0.000339918
     0.639119408  0.533650873  0.000459610
     0.772445723  0.000315427  0.000596161
     0.839116277  0.133640203  0.000575306
     0.772440513  0.200307432  0.000581033
     0.839120241  0.333635728  0.000585467
     0.772446320  0.400298367  0.000582978
     0.839118980  0.533633964  0.000621100
     0.772456143  0.600308173  0.000595712
     0.839115033  0.733643180  0.000631512
     0.972455313  0.800305582  0.000652233
     0.039114714  0.933643289  0.000598051
     0.172457971  0.800312211  0.000623372
     0.239134551  0.933647193  0.000544850
     0.372451396  0.800316674  0.000551399
     0.439124489  0.933644769  0.000541430
     0.572441101  0.800310054  0.000534535
     0.639115067  0.933638985  0.000587644
     0.772445098  0.800313187  0.000602062
     0.839116614  0.933644338  0.000606830
     0.373021009  0.251226878  0.299661415
     0.420879805  0.189313152  0.302238290
     0.325156981  0.313167186  0.297283220

  ion indices of the primitive-cell ions
   primitive index   ion index
                 1           1
                 2           2
                 3           3
                 4           4
                 5           5
                 6           6
                 7           7
                 8           8
                 9           9
                10          10
                11          11
                12          12
                13          13
                14          14
                15          15
                16          16
                17          17
                18          18
                19          19
                20          20
                21          21
                22          22
                23          23
                24          24
                25          25
                26          26
                27          27
                28          28
                29          29
                30          30
                31          31
                32          32
                33          33
                34          34
                35          35
                36          36
                37          37
                38          38
                39          39
                40          40
                41          41
                42          42
                43          43
                44          44
                45          45
                46          46
                47          47
                48          48
                49          49
                50          50
                51          51
                52          52
                53          53

----------------------------------------------------------------------------------------

 
 
 KPOINTS: auto                                    

Automatic generation of k-mesh.
 Grid dimensions read from file:
 generate k-points for:    1    1    1

 Generating k-lattice:

  Cartesian coordinates                     Fractional coordinates (reciprocal lattice)
     0.081135903  0.046843835  0.000000000     1.000000000 -0.000000000  0.000000000
     0.000000000  0.093687670  0.000000000     0.000000000  1.000000000  0.000000000
     0.000000000  0.000000000  0.040000000     0.000000000  0.000000000  1.000000000

  Length of vectors
     0.093687670  0.093687670  0.040000000

  Shift w.r.t. Gamma in fractional coordinates (k-lattice)
     0.000000000  0.000000000  0.000000000

 
 Subroutine IBZKPT returns following result:
 ===========================================
 
 Found      1 irreducible k-points:
 
 Following reciprocal coordinates:
            Coordinates               Weight
  0.000000  0.000000  0.000000      1.000000
 
 Following cartesian coordinates:
            Coordinates               Weight
  0.000000  0.000000  0.000000      1.000000
 


--------------------------------------------------------------------------------------------------------




 Dimension of arrays:
   k-points           NKPTS =      1   k-points in BZ     NKDIM =      1   number of bands    NBANDS=    168
   number of dos      NEDOS =    301   number of ions     NIONS =     53
   non local maximal  LDIM  =      4   non local SUM 2l+1 LMDIM =      8
   total plane-waves  NPLWV = ******
   max r-space proj   IRMAX =      1   max aug-charges    IRDMAX=  10008
   dimension x,y,z NGX =   128 NGY =  128 NGZ =  270
   dimension x,y,z NGXF=   256 NGYF=  256 NGZF=  540
   support grid    NGXF=   256 NGYF=  256 NGZF=  540
   ions per type =              51   2
   NGX,Y,Z   is equivalent  to a cutoff of  17.27, 17.27, 17.95 a.u.
   NGXF,Y,Z  is equivalent  to a cutoff of  34.53, 34.53, 35.91 a.u.

 SYSTEM =  unknown system                          
 POSCAR =   C  O                                   

 Startparameter for this run:
   NWRITE =      2    write-flag & timer
   PREC   = accura    normal or accurate (medium, high low for compatibility)
   ISTART =      0    job   : 0-new  1-cont  2-samecut
   ICHARG =      2    charge: 1-file 2-atom 10-const
   ISPIN  =      1    spin polarized calculation?
   LNONCOLLINEAR =      F non collinear calculations
   LSORBIT =      F    spin-orbit coupling
   INIWAV =      1    electr: 0-lowe 1-rand  2-diag
   LASPH  =      T    aspherical Exc in radial PAW
 Electronic Relaxation 1
   ENCUT  = 1000.0 eV  73.50 Ry    8.57 a.u.  31.78 31.78 64.46*2*pi/ulx,y,z
   ENINI  = 1000.0     initial cutoff
   ENAUG  =  946.8 eV  augmentation charge cutoff
   NELM   =     60;   NELMIN=  2; NELMDL= -5     # of ELM steps 
   EDIFF  = 0.1E-06   stopping-criterion for ELM
   LREAL  =      F    real-space projection
   NLSPLINE    = F    spline interpolate recip. space projectors
   LCOMPAT=      F    compatible to vasp.4.4
   GGA_COMPAT  = T    GGA compatible to vasp.4.4-vasp.4.6
   LMAXPAW     = -100 max onsite density
   LMAXMIX     =    2 max onsite mixed and CHGCAR
   VOSKOWN=      0    Vosko Wilk Nusair interpolation
   ROPT   =    0.00000   0.00000
 Ionic relaxation
   EDIFFG = 0.1E-05   stopping-criterion for IOM
   NSW    =      0    number of steps for IOM
   NBLOCK =      1;   KBLOCK =      1    inner block; outer block 
   IBRION =     -1    ionic relax: 0-MD 1-quasi-New 2-CG
   NFREE  =      0    steps in history (QN), initial steepest desc. (CG)
   ISIF   =      0    stress and relaxation
   IWAVPR =     10    prediction:  0-non 1-charg 2-wave 3-comb
   ISYM   =      2    0-nonsym 1-usesym 2-fastsym
   LCORR  =      T    Harris-Foulkes like correction to forces

   POTIM  = 0.5000    time-step for ionic-motion
   TEIN   =    0.0    initial temperature
   TEBEG  =    0.0;   TEEND  =   0.0 temperature during run
   SMASS  =  -3.00    Nose mass-parameter (am)
   estimated Nose-frequenzy (Omega)   =  0.10E-29 period in steps = 0.13E+47 mass=  -0.347E-26a.u.
   SCALEE = 1.0000    scale energy and forces
   NPACO  =    256;   APACO  = 16.0  distance and # of slots for P.C.
   PSTRESS=    0.0 pullay stress

  Mass of Ions in am
   POMASS =  12.01 16.00
  Ionic Valenz
   ZVAL   =   4.00  6.00
  Atomic Wigner-Seitz radii
   RWIGS  =  -1.00 -1.00
  virtual crystal weights 
   VCA    =   1.00  1.00
   NELECT =     216.0000    total number of electrons
   NUPDOWN=      -1.0000    fix difference up-down

 DOS related values:
   EMIN   =  10.00;   EMAX   =-10.00  energy-range for DOS
   EFERMI =   0.00
   ISMEAR =     0;   SIGMA  =   0.01  broadening in eV -4-tet -1-fermi 0-gaus

 Electronic relaxation 2 (details)
   IALGO  =     58    algorithm
   LDIAG  =      T    sub-space diagonalisation (order eigenvalues)
   LSUBROT=      F    optimize rotation matrix (better conditioning)
   TURBO    =      0    0=normal 1=particle mesh
   IRESTART =      0    0=no restart 2=restart with 2 vectors
   NREBOOT  =      0    no. of reboots
   NMIN     =      0    reboot dimension
   EREF     =   0.00    reference energy to select bands
   IMIX   =      4    mixing-type and parameters
     AMIX     =   0.40;   BMIX     =  1.00
     AMIX_MAG =   1.60;   BMIX_MAG =  1.00
     AMIN     =   0.10
     WC   =   100.;   INIMIX=   1;  MIXPRE=   1;  MAXMIX= -45

 Intra band minimization:
   WEIMIN = 0.0000     energy-eigenvalue tresh-hold
   EBREAK =  0.15E-09  absolut break condition
   DEPER  =   0.30     relativ break condition  

   TIME   =   0.40     timestep for ELM

  volume/ion in A,a.u.               =      62.05       418.76
  Fermi-wavevector in a.u.,A,eV,Ry     =   0.660508  1.248179  5.935820  0.436270
  Thomas-Fermi vector in A             =   1.732977
 
 Write flags
   LWAVE        =      T    write WAVECAR
   LDOWNSAMPLE  =      F    k-point downsampling of WAVECAR
   LCHARG       =      T    write CHGCAR
   LVTOT        =      F    write LOCPOT, total local potential
   LVHAR        =      F    write LOCPOT, Hartree potential only
   LELF         =      F    write electronic localiz. function (ELF)
   LORBIT       =      0    0 simple, 1 ext, 2 COOP (PROOUT), +10 PAW based schemes


 Dipole corrections
   LMONO  =      F    monopole corrections only (constant potential shift)
   LDIPOL =      F    correct potential (dipole corrections)
   IDIPOL =      0    1-x, 2-y, 3-z, 4-all directions 
   EPSILON=  1.0000000 bulk dielectric constant

 Exchange correlation treatment:
   GGA     =    --    GGA type
   LEXCH   =     8    internal setting for exchange type
   VOSKOWN=      0    Vosko Wilk Nusair interpolation
   LHFCALC =     F    Hartree Fock is set to
   LHFONE  =     F    Hartree Fock one center treatment
   AEXX    =    0.0000 exact exchange contribution

 Linear response parameters
   LEPSILON=     F    determine dielectric tensor
   LRPA    =     F    only Hartree local field effects (RPA)
   LNABLA  =     F    use nabla operator in PAW spheres
   LVEL    =     F    velocity operator in full k-point grid
   LINTERFAST=   F  fast interpolation
   KINTER  =     0    interpolate to denser k-point grid
   CSHIFT  =0.1000    complex shift for real part using Kramers Kronig
   OMEGAMAX=  -1.0    maximum frequency
   DEG_THRESHOLD= 0.2000000E-02 threshold for treating states as degnerate
   RTIME   =   -0.100 relaxation time in fs
  (WPLASMAI=    0.000 imaginary part of plasma frequency in eV, 0.658/RTIME)
   DFIELD  = 0.0000000 0.0000000 0.0000000 field for delta impulse in time
 
 Orbital magnetization related:
   ORBITALMAG=     F  switch on orbital magnetization
   LCHIMAG   =     F  perturbation theory with respect to B field
   DQ        =  0.001000  dq finite difference perturbation B field
   LLRAUG    =     F  two centre corrections for induced B field



--------------------------------------------------------------------------------------------------------


 Static calculation
 charge density and potential will be updated during run
 non-spin polarized calculation
 Conjugate gradient for all bands (Freysoldt, et al. PRB 79, 241103 (2009))
 preconditioned conjugated gradient                                        
 perform sub-space diagonalisation
    before iterative eigenvector-optimisation
 modified Broyden-mixing scheme, WC =      100.0
 initial mixing is a Kerker type mixing with AMIX =  0.4000 and BMIX =      1.0000
 Hartree-type preconditioning will be used
 using additional bands           60
 reciprocal scheme for non local part
 use partial core corrections
 no Harris-corrections to forces 
 use gradient corrections 
 use of overlap-Matrix (Vanderbilt PP)
 Gauss-broadening in eV      SIGMA  =   0.01


--------------------------------------------------------------------------------------------------------


  energy-cutoff  :     1000.00
  volume of cell :     3288.85
      direct lattice vectors                 reciprocal lattice vectors
    12.325000000  0.000000000  0.000000000     0.081135903  0.046843835  0.000000000
    -6.162500000 10.673763102  0.000000000     0.000000000  0.093687670  0.000000000
     0.000000000  0.000000000 25.000000000     0.000000000  0.000000000  0.040000000

  length of vectors
    12.325000000 12.325000000 25.000000000     0.093687670  0.093687670  0.040000000


 
 k-points in units of 2pi/SCALE and weight: auto                                    
   0.00000000  0.00000000  0.00000000       1.000
 
 k-points in reciprocal lattice and weights: auto                                    
   0.00000000  0.00000000  0.00000000       1.000
 
 position of ions in fractional coordinates (direct lattice) 
   0.97245084  0.00032082  0.00056671
   0.03911838  0.13365950  0.00044017
   0.17244363  0.00029545  0.00049963
   0.23909628  0.13364792  0.00025647
   0.97245206  0.20032201  0.00048522
   0.03912836  0.33364377  0.00044415
   0.17245176  0.20035455  0.00021917
   0.23912436  0.33366572  0.00007226
   0.37246557  0.00032440  0.00045391
   0.43913747  0.13361994  0.00025834
   0.97244982  0.40030936  0.00054761
   0.03912498  0.53363679  0.00057341
   0.37241618  0.40032948  0.00000000
   0.43909960  0.53363898  0.00023241
   0.57244368  0.00031213  0.00055958
   0.63911021  0.13363175  0.00054727
   0.97245270  0.60030565  0.00064029
   0.03912449  0.73364036  0.00065451
   0.57243347  0.60030624  0.00040289
   0.63911189  0.73364188  0.00052791
   0.17245463  0.40031823  0.00028904
   0.23912018  0.53363655  0.00037851
   0.37245975  0.20029599  0.00008900
   0.43910710  0.33367342  0.00005576
   0.17245216  0.60031151  0.00052434
   0.23912337  0.73363857  0.00057513
   0.57243108  0.20028917  0.00041330
   0.63911277  0.33361863  0.00046238
   0.37243981  0.60030802  0.00036284
   0.43911609  0.73363786  0.00049419
   0.57246936  0.40032050  0.00033992
   0.63911941  0.53365087  0.00045961
   0.77244572  0.00031543  0.00059616
   0.83911628  0.13364020  0.00057531
   0.77244051  0.20030743  0.00058103
   0.83912024  0.33363573  0.00058547
   0.77244632  0.40029837  0.00058298
   0.83911898  0.53363396  0.00062110
   0.77245614  0.60030817  0.00059571
   0.83911503  0.73364318  0.00063151
   0.97245531  0.80030558  0.00065223
   0.03911471  0.93364329  0.00059805
   0.17245797  0.80031221  0.00062337
   0.23913455  0.93364719  0.00054485
   0.37245140  0.80031667  0.00055140
   0.43912449  0.93364477  0.00054143
   0.57244110  0.80031005  0.00053453
   0.63911507  0.93363899  0.00058764
   0.77244510  0.80031319  0.00060206
   0.83911661  0.93364434  0.00060683
   0.37302101  0.25122688  0.29966142
   0.42087980  0.18931315  0.30223829
   0.32515698  0.31316719  0.29728322
 
 position of ions in cartesian coordinates  (Angst):
  11.98347958  0.00342433  0.01416777
  -0.34154264  1.42664989  0.01100432
   2.12354700  0.00315355  0.01249070
   2.12325634  1.42652621  0.00641170
  10.75098721  2.13818970  0.01213047
  -1.57382270  3.56123457  0.01110375
   0.89078307  2.13853702  0.00547917
   0.89099273  3.56146885  0.00180651
   4.58863896  0.00346260  0.01134782
   4.58893648  1.42622757  0.00645846
   9.51853763  4.27280730  0.01369027
  -2.80632132  5.69591267  0.01433526
   2.12299894  4.27302204  0.00000000
   2.12335237  5.69593607  0.00581036
   7.05344483  0.00333155  0.01398950
   7.05352764  1.42635365  0.01368187
   8.28609598  6.40752033  0.01600723
  -4.03884931  7.83070339  0.01636283
   3.35585531  6.40752662  0.01007237
   3.35598594  7.83071962  0.01319763
  -0.34145776  4.27290193  0.00722612
  -0.34137895  5.69591010  0.00946273
   3.35624236  2.13791198  0.00222492
   3.35573251  3.56155103  0.00139405
  -1.57394684  6.40758280  0.01310850
  -1.57385216  7.83068434  0.01437823
   5.82093107  2.13783916  0.01033241
   5.82114012  3.56096622  0.01155939
   0.89092245  6.40754561  0.00907111
   0.89106251  7.83067670  0.01235474
   4.58870974  4.27292622  0.00849795
   4.58852320  5.69606300  0.01149026
   9.51844972  0.00336679  0.01490402
   9.51855036  1.42644387  0.01438264
   8.28593477  2.13803408  0.01452582
   8.28612680  3.56114872  0.01463668
   7.05356221  4.27268994  0.01457444
   7.05362213  5.69588251  0.01552751
   5.82112285  6.40754723  0.01489279
   5.82101669  7.83073350  0.01578780
   7.05362858  8.54227219  0.01630582
  -5.27148792  9.96548729  0.01495127
  -2.80637951  8.54234295  0.01558431
  -2.80626749  9.96552896  0.01362126
  -0.34148805  8.54239058  0.01378498
  -0.34137657  9.96550309  0.01353576
   2.12342586  8.54231992  0.01336337
   2.12354296  9.96544135  0.01469111
   4.58845581  8.54235337  0.01505154
   4.58852904  9.96549848  0.01517076
   3.04929830  2.68153618  7.49153538
   4.02070129  2.02068374  7.55595724
   2.07766701  3.34267235  7.43208051
 


--------------------------------------------------------------------------------------------------------


 k-point   1 :   0.0000 0.0000 0.0000  plane waves:  236157

 maximum and minimum number of plane-waves per node :    236157   236157

 maximum number of plane-waves:    236157
 maximum index in each direction: 
   IXMAX=   31   IYMAX=   31   IZMAX=   64
   IXMIN=  -31   IYMIN=  -31   IZMIN=  -64


 serial   3D FFT for wavefunctions
 parallel 3D FFT for charge:
    minimum data exchange during FFTs selected (reduces bandwidth)


 total amount of memory used by VASP MPI-rank0   698619. kBytes
=======================================================================

   base      :      30000. kBytes
   nonl-proj :     230539. kBytes
   fftplans  :      40716. kBytes
   grid      :     363125. kBytes
   one-center:        162. kBytes
   wavefun   :      34077. kBytes
 
     INWAV:  cpu time    0.0000: real time    0.0000
 Broyden mixing: mesh for mixing (old mesh)
   NGX = 63   NGY = 63   NGZ =129
  (NGX  =256   NGY  =256   NGZ  =540)
  gives a total of 512001 points

 initial charge density was supplied:
 charge density of overlapping atoms calculated
 number of electron     216.0000000 magnetization 
 keeping initial charge density in first step


--------------------------------------------------------------------------------------------------------


 Maximum index for augmentation-charges          471 (set IRDMAX)


--------------------------------------------------------------------------------------------------------


 First call to EWALD:  gamma=   0.119
 Maximum number of real-space cells 4x 4x 2
 Maximum number of reciprocal cells 2x 2x 4

    FEWALD:  cpu time    0.0024: real time    0.0024


--------------------------------------- Iteration      1(   1)  ---------------------------------------


    POTLOK:  cpu time    1.7250: real time    1.7389
    SETDIJ:  cpu time    0.2233: real time    0.2242
    TRIAL :  cpu time   27.4344: real time   27.6677
    CORREC:  cpu time    0.0005: real time    0.0006
    --------------------------------------------
      LOOP:  cpu time   29.3985: real time   29.6494

 eigenvalue-minimisations  :   336
 total energy-change (2. order) : 0.2541449E+04  (-0.1080289E+05)
 number of electron     216.0000000 magnetization 
 augmentation part      216.0000000 magnetization 

 Free energy of the ion-electron system (eV)
  ---------------------------------------------------
  alpha Z        PSCENC =        47.94900195
  Ewald energy   TEWEN  =     42045.44139955
  -Hartree energ DENC   =    -48114.65086350
  -exchange      EXHF   =         0.00000000
  -V(xc)+E(xc)   XCENC  =       605.05725204
  PAW double counting   =      6340.10990386    -6200.63067283
  entropy T*S    EENTRO =        -0.00000000
  eigenvalues    EBANDS =      -551.35090869
  atomic energy  EATOM  =      8369.52358910
  ---------------------------------------------------
  free energy    TOTEN  =      2541.44870147 eV

  energy without entropy =     2541.44870148  energy(sigma->0) =     2541.44870148


--------------------------------------------------------------------------------------------------------




--------------------------------------- Iteration      1(   2)  ---------------------------------------


    TRIAL :  cpu time   38.9657: real time   39.2626
    CORREC:  cpu time    0.0001: real time    0.0001
    --------------------------------------------
      LOOP:  cpu time   39.0099: real time   39.3102

 eigenvalue-minimisations  :   560
 total energy-change (2. order) :-0.2482090E+04  (-0.2329219E+04)
 number of electron     216.0000000 magnetization 
 augmentation part      216.0000000 magnetization 

 Free energy of the ion-electron system (eV)
  ---------------------------------------------------
  alpha Z        PSCENC =        47.94900195
  Ewald energy   TEWEN  =     42045.44139955
  -Hartree energ DENC   =    -48114.65086350
  -exchange      EXHF   =         0.00000000
  -V(xc)+E(xc)   XCENC  =       605.05725204
  PAW double counting   =      6340.10990386    -6200.63067283
  entropy T*S    EENTRO =        -0.00000000
  eigenvalues    EBANDS =     -3033.44097357
  atomic energy  EATOM  =      8369.52358910
  ---------------------------------------------------
  free energy    TOTEN  =        59.35863660 eV

  energy without entropy =       59.35863660  energy(sigma->0) =       59.35863660


--------------------------------------------------------------------------------------------------------




--------------------------------------- Iteration      1(   3)  ---------------------------------------


    TRIAL :  cpu time   33.1579: real time   33.4273
    CORREC:  cpu time    0.0001: real time    0.0001
    --------------------------------------------
      LOOP:  cpu time   33.2245: real time   33.4958

 eigenvalue-minimisations  :   448
 total energy-change (2. order) :-0.6448622E+03  (-0.6424495E+03)
 number of electron     216.0000000 magnetization 
 augmentation part      216.0000000 magnetization 

 Free energy of the ion-electron system (eV)
  ---------------------------------------------------
  alpha Z        PSCENC =        47.94900195
  Ewald energy   TEWEN  =     42045.44139955
  -Hartree energ DENC   =    -48114.65086350
  -exchange      EXHF   =         0.00000000
  -V(xc)+E(xc)   XCENC  =       605.05725204
  PAW double counting   =      6340.10990386    -6200.63067283
  entropy T*S    EENTRO =        -0.00000000
  eigenvalues    EBANDS =     -3678.30315990
  atomic energy  EATOM  =      8369.52358910
  ---------------------------------------------------
  free energy    TOTEN  =      -585.50354973 eV

  energy without entropy =     -585.50354973  energy(sigma->0) =     -585.50354973


--------------------------------------------------------------------------------------------------------




--------------------------------------- Iteration      1(   4)  ---------------------------------------


    TRIAL :  cpu time   33.1798: real time   33.4180
    CORREC:  cpu time    0.0001: real time    0.0001
    --------------------------------------------
      LOOP:  cpu time   33.2007: real time   33.4635

 eigenvalue-minimisations  :   448
 total energy-change (2. order) :-0.2156468E+02  (-0.2146416E+02)
 number of electron     216.0000000 magnetization 
 augmentation part      216.0000000 magnetization 

 Free energy of the ion-electron system (eV)
  ---------------------------------------------------
  alpha Z        PSCENC =        47.94900195
  Ewald energy   TEWEN  =     42045.44139955
  -Hartree energ DENC   =    -48114.65086350
  -exchange      EXHF   =         0.00000000
  -V(xc)+E(xc)   XCENC  =       605.05725204
  PAW double counting   =      6340.10990386    -6200.63067283
  entropy T*S    EENTRO =        -0.00000000
  eigenvalues    EBANDS =     -3699.86784213
  atomic energy  EATOM  =      8369.52358910
  ---------------------------------------------------
  free energy    TOTEN  =      -607.06823197 eV

  energy without entropy =     -607.06823197  energy(sigma->0) =     -607.06823197


--------------------------------------------------------------------------------------------------------




--------------------------------------- Iteration      1(   5)  ---------------------------------------


    TRIAL :  cpu time   33.1524: real time   33.4072
    CORREC:  cpu time    0.0001: real time    0.0001
    CHARGE:  cpu time    2.9628: real time    2.9845
    --------------------------------------------
      LOOP:  cpu time   36.1779: real time   36.4587

 eigenvalue-minimisations  :   448
 total energy-change (2. order) :-0.6872316E+00  (-0.6855683E+00)
 number of electron     216.0000000 magnetization 
 augmentation part       -0.4454552 magnetization 

 Free energy of the ion-electron system (eV)
  ---------------------------------------------------
  alpha Z        PSCENC =        47.94900195
  Ewald energy   TEWEN  =     42045.44139955
  -Hartree energ DENC   =    -48114.65086350
  -exchange      EXHF   =         0.00000000
  -V(xc)+E(xc)   XCENC  =       605.05725204
  PAW double counting   =      6340.10990386    -6200.63067283
  entropy T*S    EENTRO =        -0.00000000
  eigenvalues    EBANDS =     -3700.55507377
  atomic energy  EATOM  =      8369.52358910
  ---------------------------------------------------
  free energy    TOTEN  =      -607.75546361 eV

  energy without entropy =     -607.75546361  energy(sigma->0) =     -607.75546361


--------------------------------------------------------------------------------------------------------




--------------------------------------- Iteration      1(   6)  ---------------------------------------


    POTLOK:  cpu time    1.6781: real time    1.6878
    SETDIJ:  cpu time    0.2354: real time    0.2363
    TRIAL :  cpu time   19.7409: real time   19.8914
    CORREC:  cpu time    8.8712: real time    8.9330
    CHARGE:  cpu time    2.9449: real time    2.9753
    --------------------------------------------
      LOOP:  cpu time   33.5334: real time   33.7900

 eigenvalue-minimisations  :     0
 total energy-change (2. order) : 0.9801490E+02  (-0.1133482E+02)
 number of electron     216.0000000 magnetization 
 augmentation part       -0.5029509 magnetization 

 Free energy of the ion-electron system (eV)
  ---------------------------------------------------
  alpha Z        PSCENC =        47.94900195
  Ewald energy   TEWEN  =     42045.44139955
  -Hartree energ DENC   =    -49457.56609975
  -exchange      EXHF   =         0.00000000
  -V(xc)+E(xc)   XCENC  =       676.76831057
  PAW double counting   =    119424.56567322  -119284.98916645
  entropy T*S    EENTRO =        -0.00000000
  eigenvalues    EBANDS =     -2331.43326837
  atomic energy  EATOM  =      8369.52358910
  ---------------------------------------------------
  free energy    TOTEN  =      -509.74056019 eV

  energy without entropy =     -509.74056019  energy(sigma->0) =     -509.74056019


--------------------------------------------------------------------------------------------------------




--------------------------------------- Iteration      1(   7)  ---------------------------------------


    POTLOK:  cpu time    1.6775: real time    1.6873
    SETDIJ:  cpu time    0.2244: real time    0.2253
    TRIAL :  cpu time   19.7471: real time   19.8933
    CORREC:  cpu time    8.8625: real time    8.9253
    CHARGE:  cpu time    2.9485: real time    2.9693
    --------------------------------------------
      LOOP:  cpu time   33.5248: real time   33.7799

 eigenvalue-minimisations  :     0
 total energy-change (2. order) :-0.1135145E+02  (-0.1471322E+01)
 number of electron     216.0000000 magnetization 
 augmentation part       -0.5371383 magnetization 

 Free energy of the ion-electron system (eV)
  ---------------------------------------------------
  alpha Z        PSCENC =        47.94900195
  Ewald energy   TEWEN  =     42045.44139955
  -Hartree energ DENC   =    -49045.82413851
  -exchange      EXHF   =         0.00000000
  -V(xc)+E(xc)   XCENC  =       659.05830246
  PAW double counting   =    138534.63316002  -138393.30551184
  entropy T*S    EENTRO =        -0.00000000
  eigenvalues    EBANDS =     -2738.56780950
  atomic energy  EATOM  =      8369.52358910
  ---------------------------------------------------
  free energy    TOTEN  =      -521.09200678 eV

  energy without entropy =     -521.09200678  energy(sigma->0) =     -521.09200678


--------------------------------------------------------------------------------------------------------




--------------------------------------- Iteration      1(   8)  ---------------------------------------


    POTLOK:  cpu time    1.6798: real time    1.6895
    SETDIJ:  cpu time    0.2301: real time    0.2309
    TRIAL :  cpu time   19.7643: real time   19.9076
    CORREC:  cpu time    8.8752: real time    8.9357
    CHARGE:  cpu time    2.9457: real time    2.9660
    --------------------------------------------
      LOOP:  cpu time   33.5753: real time   33.8141

 eigenvalue-minimisations  :     0
 total energy-change (2. order) :-0.1470994E+01  (-0.4564796E+00)
 number of electron     216.0000000 magnetization 
 augmentation part       -0.5402894 magnetization 

 Free energy of the ion-electron system (eV)
  ---------------------------------------------------
  alpha Z        PSCENC =        47.94900195
  Ewald energy   TEWEN  =     42045.44139955
  -Hartree energ DENC   =    -49015.98988006
  -exchange      EXHF   =         0.00000000
  -V(xc)+E(xc)   XCENC  =       657.99395735
  PAW double counting   =    148141.09175066  -147999.63603579
  entropy T*S    EENTRO =        -0.00000000
  eigenvalues    EBANDS =     -2768.93678383
  atomic energy  EATOM  =      8369.52358910
  ---------------------------------------------------
  free energy    TOTEN  =      -522.56300108 eV

  energy without entropy =     -522.56300108  energy(sigma->0) =     -522.56300108


--------------------------------------------------------------------------------------------------------




--------------------------------------- Iteration      1(   9)  ---------------------------------------


    POTLOK:  cpu time    1.6897: real time    1.6997
    SETDIJ:  cpu time    0.2104: real time    0.2112
    TRIAL :  cpu time   19.7874: real time   19.9375
    CORREC:  cpu time    8.8491: real time    8.9325
    CHARGE:  cpu time    2.9461: real time    2.9670
    --------------------------------------------
      LOOP:  cpu time   33.5144: real time   33.8033

 eigenvalue-minimisations  :     0
 total energy-change (2. order) :-0.4564402E+00  (-0.1767993E+00)
 number of electron     216.0000000 magnetization 
 augmentation part       -0.5387142 magnetization 

 Free energy of the ion-electron system (eV)
  ---------------------------------------------------
  alpha Z        PSCENC =        47.94900195
  Ewald energy   TEWEN  =     42045.44139955
  -Hartree energ DENC   =    -49024.00827354
  -exchange      EXHF   =         0.00000000
  -V(xc)+E(xc)   XCENC  =       657.99185331
  PAW double counting   =    155932.47035987  -155790.94636479
  entropy T*S    EENTRO =        -0.00000000
  eigenvalues    EBANDS =     -2761.44100670
  atomic energy  EATOM  =      8369.52358910
  ---------------------------------------------------
  free energy    TOTEN  =      -523.01944125 eV

  energy without entropy =     -523.01944125  energy(sigma->0) =     -523.01944125


--------------------------------------------------------------------------------------------------------




--------------------------------------- Iteration      1(  10)  ---------------------------------------


    POTLOK:  cpu time    1.6791: real time    1.6884
    SETDIJ:  cpu time    0.2267: real time    0.2274
    TRIAL :  cpu time   19.7119: real time   19.8634
    CORREC:  cpu time    8.9066: real time    8.9648
    CHARGE:  cpu time    2.9594: real time    2.9802
    --------------------------------------------
      LOOP:  cpu time   33.5656: real time   33.8234

 eigenvalue-minimisations  :     0
 total energy-change (2. order) :-0.1766212E+00  (-0.7579981E-01)
 number of electron     216.0000000 magnetization 
 augmentation part       -0.5342410 magnetization 

 Free energy of the ion-electron system (eV)
  ---------------------------------------------------
  alpha Z        PSCENC =        47.94900195
  Ewald energy   TEWEN  =     42045.44139955
  -Hartree energ DENC   =    -49023.95410586
  -exchange      EXHF   =         0.00000000
  -V(xc)+E(xc)   XCENC  =       657.92233208
  PAW double counting   =    159796.90388019  -159655.33288813
  entropy T*S    EENTRO =        -0.00000000
  eigenvalues    EBANDS =     -2761.64927132
  atomic energy  EATOM  =      8369.52358910
  ---------------------------------------------------
  free energy    TOTEN  =      -523.19606245 eV

  energy without entropy =     -523.19606245  energy(sigma->0) =     -523.19606245


--------------------------------------------------------------------------------------------------------




--------------------------------------- Iteration      1(  11)  ---------------------------------------


    POTLOK:  cpu time    1.6778: real time    1.6877
    SETDIJ:  cpu time    0.2262: real time    0.2270
    TRIAL :  cpu time   19.7377: real time   19.8845
    CORREC:  cpu time    8.8496: real time    8.9165
    CHARGE:  cpu time    2.9481: real time    2.9689
    --------------------------------------------
      LOOP:  cpu time   33.4986: real time   33.7455

 eigenvalue-minimisations  :     0
 total energy-change (2. order) :-0.7562857E-01  (-0.2967017E-01)
 number of electron     216.0000000 magnetization 
 augmentation part       -0.5309025 magnetization 

 Free energy of the ion-electron system (eV)
  ---------------------------------------------------
  alpha Z        PSCENC =        47.94900195
  Ewald energy   TEWEN  =     42045.44139955
  -Hartree energ DENC   =    -49018.33458406
  -exchange      EXHF   =         0.00000000
  -V(xc)+E(xc)   XCENC  =       657.85695575
  PAW double counting   =    160578.63266384  -160437.07996564
  entropy T*S    EENTRO =        -0.00000000
  eigenvalues    EBANDS =     -2767.26075150
  atomic energy  EATOM  =      8369.52358910
  ---------------------------------------------------
  free energy    TOTEN  =      -523.27169102 eV

  energy without entropy =     -523.27169102  energy(sigma->0) =     -523.27169102


--------------------------------------------------------------------------------------------------------




--------------------------------------- Iteration      1(  12)  ---------------------------------------


    POTLOK:  cpu time    1.6743: real time    1.6848
    SETDIJ:  cpu time    0.2261: real time    0.2270
    TRIAL :  cpu time   19.7309: real time   19.8970
    CORREC:  cpu time    8.8734: real time    8.9355
    CHARGE:  cpu time    2.9608: real time    2.9819
    --------------------------------------------
      LOOP:  cpu time   33.5753: real time   33.8386

 eigenvalue-minimisations  :     0
 total energy-change (2. order) :-0.2962608E-01  (-0.9485101E-02)
 number of electron     216.0000000 magnetization 
 augmentation part       -0.5306231 magnetization 

 Free energy of the ion-electron system (eV)
  ---------------------------------------------------
  alpha Z        PSCENC =        47.94900195
  Ewald energy   TEWEN  =     42045.44139955
  -Hartree energ DENC   =    -49013.94874694
  -exchange      EXHF   =         0.00000000
  -V(xc)+E(xc)   XCENC  =       657.79089019
  PAW double counting   =    160106.56848086  -159965.04134421
  entropy T*S    EENTRO =        -0.00000000
  eigenvalues    EBANDS =     -2771.58458758
  atomic energy  EATOM  =      8369.52358910
  ---------------------------------------------------
  free energy    TOTEN  =      -523.30131709 eV

  energy without entropy =     -523.30131709  energy(sigma->0) =     -523.30131709


--------------------------------------------------------------------------------------------------------




--------------------------------------- Iteration      1(  13)  ---------------------------------------


    POTLOK:  cpu time    1.6771: real time    1.6866
    SETDIJ:  cpu time    0.2292: real time    0.2300
    TRIAL :  cpu time   19.7275: real time   19.8777
    CORREC:  cpu time    8.8577: real time    8.9244
    CHARGE:  cpu time    2.9412: real time    2.9673
    --------------------------------------------
      LOOP:  cpu time   33.4608: real time   33.7148

 eigenvalue-minimisations  :     0
 total energy-change (2. order) :-0.9466543E-02  (-0.2657578E-02)
 number of electron     216.0000000 magnetization 
 augmentation part       -0.5310273 magnetization 

 Free energy of the ion-electron system (eV)
  ---------------------------------------------------
  alpha Z        PSCENC =        47.94900195
  Ewald energy   TEWEN  =     42045.44139955
  -Hartree energ DENC   =    -49012.66903613
  -exchange      EXHF   =         0.00000000
  -V(xc)+E(xc)   XCENC  =       657.74598620
  PAW double counting   =    159452.28020031  -159310.75814731
  entropy T*S    EENTRO =        -0.00000000
  eigenvalues    EBANDS =     -2772.82377731
  atomic energy  EATOM  =      8369.52358910
  ---------------------------------------------------
  free energy    TOTEN  =      -523.31078364 eV

  energy without entropy =     -523.31078364  energy(sigma->0) =     -523.31078364


--------------------------------------------------------------------------------------------------------




--------------------------------------- Iteration      1(  14)  ---------------------------------------


    POTLOK:  cpu time    1.6762: real time    1.6862
    SETDIJ:  cpu time    0.2259: real time    0.2267
    TRIAL :  cpu time   19.7130: real time   19.8747
    CORREC:  cpu time    8.8637: real time    8.9256
    CHARGE:  cpu time    2.9572: real time    2.9780
    --------------------------------------------
      LOOP:  cpu time   33.4809: real time   33.7363

 eigenvalue-minimisations  :     0
 total energy-change (2. order) :-0.2647280E-02  (-0.7282218E-03)
 number of electron     216.0000000 magnetization 
 augmentation part       -0.5312594 magnetization 

 Free energy of the ion-electron system (eV)
  ---------------------------------------------------
  alpha Z        PSCENC =        47.94900195
  Ewald energy   TEWEN  =     42045.44139955
  -Hartree energ DENC   =    -49012.71208298
  -exchange      EXHF   =         0.00000000
  -V(xc)+E(xc)   XCENC  =       657.73317199
  PAW double counting   =    159059.41247561  -158917.88940198
  entropy T*S    EENTRO =        -0.00000000
  eigenvalues    EBANDS =     -2772.77158416
  atomic energy  EATOM  =      8369.52358910
  ---------------------------------------------------
  free energy    TOTEN  =      -523.31343092 eV

  energy without entropy =     -523.31343092  energy(sigma->0) =     -523.31343092


--------------------------------------------------------------------------------------------------------




--------------------------------------- Iteration      1(  15)  ---------------------------------------


    POTLOK:  cpu time    1.6792: real time    1.6892
    SETDIJ:  cpu time    0.2224: real time    0.2232
    TRIAL :  cpu time   19.7016: real time   19.9019
    CORREC:  cpu time    8.8721: real time    8.9330
    CHARGE:  cpu time    2.9451: real time    2.9665
    --------------------------------------------
      LOOP:  cpu time   33.4695: real time   33.7703

 eigenvalue-minimisations  :     0
 total energy-change (2. order) :-0.7235505E-03  (-0.1986846E-03)
 number of electron     216.0000000 magnetization 
 augmentation part       -0.5314412 magnetization 

 Free energy of the ion-electron system (eV)
  ---------------------------------------------------
  alpha Z        PSCENC =        47.94900195
  Ewald energy   TEWEN  =     42045.44139955
  -Hartree energ DENC   =    -49012.61327151
  -exchange      EXHF   =         0.00000000
  -V(xc)+E(xc)   XCENC  =       657.72683452
  PAW double counting   =    158864.30662921  -158722.78253271
  entropy T*S    EENTRO =        -0.00000000
  eigenvalues    EBANDS =     -2772.86580457
  atomic energy  EATOM  =      8369.52358910
  ---------------------------------------------------
  free energy    TOTEN  =      -523.31415447 eV

  energy without entropy =     -523.31415447  energy(sigma->0) =     -523.31415447


--------------------------------------------------------------------------------------------------------




--------------------------------------- Iteration      1(  16)  ---------------------------------------


    POTLOK:  cpu time    1.6786: real time    1.6881
    SETDIJ:  cpu time    0.2264: real time    0.2272
    TRIAL :  cpu time   19.7594: real time   19.9002
    CORREC:  cpu time    8.8766: real time    8.9393
    CHARGE:  cpu time    2.9564: real time    2.9766
    --------------------------------------------
      LOOP:  cpu time   33.5346: real time   33.7732

 eigenvalue-minimisations  :     0
 total energy-change (2. order) :-0.1967298E-03  (-0.6183575E-04)
 number of electron     216.0000000 magnetization 
 augmentation part       -0.5315197 magnetization 

 Free energy of the ion-electron system (eV)
  ---------------------------------------------------
  alpha Z        PSCENC =        47.94900195
  Ewald energy   TEWEN  =     42045.44139955
  -Hartree energ DENC   =    -49012.51507759
  -exchange      EXHF   =         0.00000000
  -V(xc)+E(xc)   XCENC  =       657.72114520
  PAW double counting   =    158755.48744444  -158613.96180196
  entropy T*S    EENTRO =        -0.00000000
  eigenvalues    EBANDS =     -2772.96005189
  atomic energy  EATOM  =      8369.52358910
  ---------------------------------------------------
  free energy    TOTEN  =      -523.31435120 eV

  energy without entropy =     -523.31435120  energy(sigma->0) =     -523.31435120


--------------------------------------------------------------------------------------------------------




--------------------------------------- Iteration      1(  17)  ---------------------------------------


    POTLOK:  cpu time    1.6788: real time    1.6889
    SETDIJ:  cpu time    0.2224: real time    0.2232
    TRIAL :  cpu time   19.7499: real time   19.8942
    CORREC:  cpu time    8.8726: real time    8.9346
    CHARGE:  cpu time    2.9452: real time    2.9670
    --------------------------------------------
      LOOP:  cpu time   33.5257: real time   33.7780

 eigenvalue-minimisations  :     0
 total energy-change (2. order) :-0.6079156E-04  (-0.2074350E-04)
 number of electron     216.0000000 magnetization 
 augmentation part       -0.5315479 magnetization 

 Free energy of the ion-electron system (eV)
  ---------------------------------------------------
  alpha Z        PSCENC =        47.94900195
  Ewald energy   TEWEN  =     42045.44139955
  -Hartree energ DENC   =    -49012.64713552
  -exchange      EXHF   =         0.00000000
  -V(xc)+E(xc)   XCENC  =       657.72636147
  PAW double counting   =    158689.50757515  -158547.98172161
  entropy T*S    EENTRO =        -0.00000000
  eigenvalues    EBANDS =     -2772.83348208
  atomic energy  EATOM  =      8369.52358910
  ---------------------------------------------------
  free energy    TOTEN  =      -523.31441199 eV

  energy without entropy =     -523.31441199  energy(sigma->0) =     -523.31441199


--------------------------------------------------------------------------------------------------------




--------------------------------------- Iteration      1(  18)  ---------------------------------------


    POTLOK:  cpu time    1.6785: real time    1.6884
    SETDIJ:  cpu time    0.2265: real time    0.2273
    TRIAL :  cpu time   19.7200: real time   19.8628
    CORREC:  cpu time    8.8736: real time    8.9347
    CHARGE:  cpu time    2.9609: real time    2.9831
    --------------------------------------------
      LOOP:  cpu time   33.4889: real time   33.7317

 eigenvalue-minimisations  :     0
 total energy-change (2. order) :-0.2079597E-04  (-0.6788720E-05)
 number of electron     216.0000000 magnetization 
 augmentation part       -0.5315651 magnetization 

 Free energy of the ion-electron system (eV)
  ---------------------------------------------------
  alpha Z        PSCENC =        47.94900195
  Ewald energy   TEWEN  =     42045.44139955
  -Hartree energ DENC   =    -49012.69956963
  -exchange      EXHF   =         0.00000000
  -V(xc)+E(xc)   XCENC  =       657.72821212
  PAW double counting   =    158663.53881436  -158522.01269147
  entropy T*S    EENTRO =        -0.00000000
  eigenvalues    EBANDS =     -2772.78318876
  atomic energy  EATOM  =      8369.52358910
  ---------------------------------------------------
  free energy    TOTEN  =      -523.31443279 eV

  energy without entropy =     -523.31443279  energy(sigma->0) =     -523.31443279


--------------------------------------------------------------------------------------------------------




--------------------------------------- Iteration      1(  19)  ---------------------------------------


    POTLOK:  cpu time    1.6731: real time    1.6897
    SETDIJ:  cpu time    0.2273: real time    0.2282
    TRIAL :  cpu time   19.7628: real time   19.9064
    CORREC:  cpu time    8.8631: real time    8.9285
    CHARGE:  cpu time    2.9438: real time    2.9661
    --------------------------------------------
      LOOP:  cpu time   33.4992: real time   33.7683

 eigenvalue-minimisations  :     0
 total energy-change (2. order) :-0.7007300E-05  (-0.2293857E-05)
 number of electron     216.0000000 magnetization 
 augmentation part       -0.5315699 magnetization 

 Free energy of the ion-electron system (eV)
  ---------------------------------------------------
  alpha Z        PSCENC =        47.94900195
  Ewald energy   TEWEN  =     42045.44139955
  -Hartree energ DENC   =    -49012.69994741
  -exchange      EXHF   =         0.00000000
  -V(xc)+E(xc)   XCENC  =       657.72796134
  PAW double counting   =    158662.72719691  -158521.20082346
  entropy T*S    EENTRO =        -0.00000000
  eigenvalues    EBANDS =     -2772.78281777
  atomic energy  EATOM  =      8369.52358910
  ---------------------------------------------------
  free energy    TOTEN  =      -523.31443979 eV

  energy without entropy =     -523.31443979  energy(sigma->0) =     -523.31443979


--------------------------------------------------------------------------------------------------------




--------------------------------------- Iteration      1(  20)  ---------------------------------------


    POTLOK:  cpu time    1.6754: real time    1.6853
    SETDIJ:  cpu time    0.2289: real time    0.2297
    TRIAL :  cpu time   19.7536: real time   19.8979
    CORREC:  cpu time    8.8604: real time    8.9241
    CHARGE:  cpu time    2.9552: real time    2.9795
    --------------------------------------------
      LOOP:  cpu time   33.4863: real time   33.7597

 eigenvalue-minimisations  :     0
 total energy-change (2. order) :-0.2355780E-05  (-0.7812929E-06)
 number of electron     216.0000000 magnetization 
 augmentation part       -0.5315707 magnetization 

 Free energy of the ion-electron system (eV)
  ---------------------------------------------------
  alpha Z        PSCENC =        47.94900195
  Ewald energy   TEWEN  =     42045.44139955
  -Hartree energ DENC   =    -49012.71895000
  -exchange      EXHF   =         0.00000000
  -V(xc)+E(xc)   XCENC  =       657.72870940
  PAW double counting   =    158669.21161212  -158527.68524627
  entropy T*S    EENTRO =        -0.00000000
  eigenvalues    EBANDS =     -2772.76455800
  atomic energy  EATOM  =      8369.52358910
  ---------------------------------------------------
  free energy    TOTEN  =      -523.31444215 eV

  energy without entropy =     -523.31444215  energy(sigma->0) =     -523.31444215


--------------------------------------------------------------------------------------------------------




--------------------------------------- Iteration      1(  21)  ---------------------------------------


    POTLOK:  cpu time    1.6768: real time    1.6885
    SETDIJ:  cpu time    0.2286: real time    0.2295
    TRIAL :  cpu time   19.7063: real time   19.8823
    CORREC:  cpu time    8.8608: real time    8.9287
    CHARGE:  cpu time    2.9579: real time    2.9787
    --------------------------------------------
      LOOP:  cpu time   33.4690: real time   33.7484

 eigenvalue-minimisations  :     0
 total energy-change (2. order) :-0.7819326E-06  (-0.2718153E-06)
 number of electron     216.0000000 magnetization 
 augmentation part       -0.5315664 magnetization 

 Free energy of the ion-electron system (eV)
  ---------------------------------------------------
  alpha Z        PSCENC =        47.94900195
  Ewald energy   TEWEN  =     42045.44139955
  -Hartree energ DENC   =    -49012.72728952
  -exchange      EXHF   =         0.00000000
  -V(xc)+E(xc)   XCENC  =       657.72888778
  PAW double counting   =    158675.38431304  -158533.85794948
  entropy T*S    EENTRO =        -0.00000000
  eigenvalues    EBANDS =     -2772.75639535
  atomic energy  EATOM  =      8369.52358910
  ---------------------------------------------------
  free energy    TOTEN  =      -523.31444293 eV

  energy without entropy =     -523.31444293  energy(sigma->0) =     -523.31444293


--------------------------------------------------------------------------------------------------------




--------------------------------------- Iteration      1(  22)  ---------------------------------------


    POTLOK:  cpu time    1.6785: real time    1.6886
    SETDIJ:  cpu time    0.2249: real time    0.2257
    TRIAL :  cpu time   19.7374: real time   19.8931
    CORREC:  cpu time    8.8738: real time    8.9369
    CHARGE:  cpu time    2.9491: real time    2.9725
    --------------------------------------------
      LOOP:  cpu time   33.4909: real time   33.7699

 eigenvalue-minimisations  :     0
 total energy-change (2. order) :-0.2503803E-06  (-0.1611578E-06)
 number of electron     216.0000000 magnetization 
 augmentation part       -0.5315593 magnetization 

 Free energy of the ion-electron system (eV)
  ---------------------------------------------------
  alpha Z        PSCENC =        47.94900195
  Ewald energy   TEWEN  =     42045.44139955
  -Hartree energ DENC   =    -49012.72736135
  -exchange      EXHF   =         0.00000000
  -V(xc)+E(xc)   XCENC  =       657.72883163
  PAW double counting   =    158679.10083305  -158537.57449249
  entropy T*S    EENTRO =        -0.00000000
  eigenvalues    EBANDS =     -2772.75624462
  atomic energy  EATOM  =      8369.52358910
  ---------------------------------------------------
  free energy    TOTEN  =      -523.31444318 eV

  energy without entropy =     -523.31444318  energy(sigma->0) =     -523.31444318


--------------------------------------------------------------------------------------------------------




--------------------------------------- Iteration      1(  23)  ---------------------------------------


    POTLOK:  cpu time    1.6787: real time    1.6886
    SETDIJ:  cpu time    0.2236: real time    0.2244
    TRIAL :  cpu time   19.7289: real time   19.8795
    CORREC:  cpu time   35.4657: real time   35.7214
    CHARGE:  cpu time    2.9728: real time    2.9986
    --------------------------------------------
      LOOP:  cpu time   60.1266: real time   60.5806

 eigenvalue-minimisations  :     0
 total energy-change (2. order) :-0.1084700E-06  (-0.3280718E-06)
 number of electron     216.0000000 magnetization 
 augmentation part       -0.5315526 magnetization 

 Free energy of the ion-electron system (eV)
  ---------------------------------------------------
  alpha Z        PSCENC =        47.94900195
  Ewald energy   TEWEN  =     42045.44139955
  -Hartree energ DENC   =    -49012.72729361
  -exchange      EXHF   =         0.00000000
  -V(xc)+E(xc)   XCENC  =       657.72885098
  PAW double counting   =    158681.81788700  -158540.29159856
  entropy T*S    EENTRO =        -0.00000000
  eigenvalues    EBANDS =     -2772.75627969
  atomic energy  EATOM  =      8369.52358910
  ---------------------------------------------------
  free energy    TOTEN  =      -523.31444329 eV

  energy without entropy =     -523.31444329  energy(sigma->0) =     -523.31444329


--------------------------------------------------------------------------------------------------------




--------------------------------------- Iteration      1(  24)  ---------------------------------------


    POTLOK:  cpu time    1.6824: real time    1.6922
    SETDIJ:  cpu time    0.2196: real time    0.2204
    TRIAL :  cpu time   19.7459: real time   19.8898
    CORREC:  cpu time    8.8650: real time    8.9312
    CHARGE:  cpu time    2.9557: real time    2.9763
    --------------------------------------------
      LOOP:  cpu time   33.4996: real time   33.7434

 eigenvalue-minimisations  :     0
 total energy-change (2. order) : 0.6124028E-06  (-0.4555198E-06)
 number of electron     216.0000000 magnetization 
 augmentation part       -0.5315527 magnetization 

 Free energy of the ion-electron system (eV)
  ---------------------------------------------------
  alpha Z        PSCENC =        47.94900195
  Ewald energy   TEWEN  =     42045.44139955
  -Hartree energ DENC   =    -49012.72375077
  -exchange      EXHF   =         0.00000000
  -V(xc)+E(xc)   XCENC  =       657.72862403
  PAW double counting   =    158687.03811746  -158545.51188013
  entropy T*S    EENTRO =        -0.00000000
  eigenvalues    EBANDS =     -2772.75954387
  atomic energy  EATOM  =      8369.52358910
  ---------------------------------------------------
  free energy    TOTEN  =      -523.31444268 eV

  energy without entropy =     -523.31444268  energy(sigma->0) =     -523.31444268


--------------------------------------------------------------------------------------------------------




--------------------------------------- Iteration      1(  25)  ---------------------------------------


    POTLOK:  cpu time    1.6792: real time    1.6889
    SETDIJ:  cpu time    0.2249: real time    0.2258
    TRIAL :  cpu time   19.7592: real time   19.9052
    CORREC:  cpu time    8.8864: real time    8.9489
    CHARGE:  cpu time    2.9565: real time    2.9773
    --------------------------------------------
      LOOP:  cpu time   33.5453: real time   33.7917

 eigenvalue-minimisations  :     0
 total energy-change (2. order) :-0.4421454E-06  (-0.1674453E-06)
 number of electron     216.0000000 magnetization 
 augmentation part       -0.5315639 magnetization 

 Free energy of the ion-electron system (eV)
  ---------------------------------------------------
  alpha Z        PSCENC =        47.94900195
  Ewald energy   TEWEN  =     42045.44139955
  -Hartree energ DENC   =    -49012.72504115
  -exchange      EXHF   =         0.00000000
  -V(xc)+E(xc)   XCENC  =       657.72884720
  PAW double counting   =    158686.24776681  -158544.72155330
  entropy T*S    EENTRO =        -0.00000000
  eigenvalues    EBANDS =     -2772.75845328
  atomic energy  EATOM  =      8369.52358910
  ---------------------------------------------------
  free energy    TOTEN  =      -523.31444312 eV

  energy without entropy =     -523.31444312  energy(sigma->0) =     -523.31444312


--------------------------------------------------------------------------------------------------------




--------------------------------------- Iteration      1(  26)  ---------------------------------------


    POTLOK:  cpu time    1.6796: real time    1.6895
    SETDIJ:  cpu time    0.2217: real time    0.2225
    TRIAL :  cpu time   19.7264: real time   19.8850
    CORREC:  cpu time    8.8758: real time    8.9364
    CHARGE:  cpu time    2.9512: real time    2.9720
    --------------------------------------------
      LOOP:  cpu time   33.4905: real time   33.7548

 eigenvalue-minimisations  :     0
 total energy-change (2. order) :-0.1121080E-06  (-0.1578718E-06)
 number of electron     216.0000000 magnetization 
 augmentation part       -0.5315739 magnetization 

 Free energy of the ion-electron system (eV)
  ---------------------------------------------------
  alpha Z        PSCENC =        47.94900195
  Ewald energy   TEWEN  =     42045.44139955
  -Hartree energ DENC   =    -49012.72136078
  -exchange      EXHF   =         0.00000000
  -V(xc)+E(xc)   XCENC  =       657.72855349
  PAW double counting   =    158684.32047218  -158542.79415571
  entropy T*S    EENTRO =        -0.00000000
  eigenvalues    EBANDS =     -2772.76194301
  atomic energy  EATOM  =      8369.52358910
  ---------------------------------------------------
  free energy    TOTEN  =      -523.31444323 eV

  energy without entropy =     -523.31444323  energy(sigma->0) =     -523.31444323


--------------------------------------------------------------------------------------------------------




--------------------------------------- Iteration      1(  27)  ---------------------------------------


    POTLOK:  cpu time    1.6812: real time    1.6910
    SETDIJ:  cpu time    0.2226: real time    0.2235
    TRIAL :  cpu time   19.7478: real time   19.8929
    CORREC:  cpu time    8.8609: real time    8.9210
    CHARGE:  cpu time    2.9542: real time    2.9745
    --------------------------------------------
      LOOP:  cpu time   33.5200: real time   33.7597

 eigenvalue-minimisations  :     0
 total energy-change (2. order) : 0.1135049E-07  (-0.1683471E-06)
 number of electron     216.0000000 magnetization 
 augmentation part       -0.5315719 magnetization 

 Free energy of the ion-electron system (eV)
  ---------------------------------------------------
  alpha Z        PSCENC =        47.94900195
  Ewald energy   TEWEN  =     42045.44139955
  -Hartree energ DENC   =    -49012.73035567
  -exchange      EXHF   =         0.00000000
  -V(xc)+E(xc)   XCENC  =       657.72906473
  PAW double counting   =    158679.16860022  -158537.64226022
  entropy T*S    EENTRO =        -0.00000000
  eigenvalues    EBANDS =     -2772.75348288
  atomic energy  EATOM  =      8369.52358910
  ---------------------------------------------------
  free energy    TOTEN  =      -523.31444322 eV

  energy without entropy =     -523.31444322  energy(sigma->0) =     -523.31444322


--------------------------------------------------------------------------------------------------------




--------------------------------------- Iteration      1(  28)  ---------------------------------------


    POTLOK:  cpu time    1.6762: real time    1.6861
    SETDIJ:  cpu time    0.2260: real time    0.2267
    TRIAL :  cpu time   19.7257: real time   19.8737
    CORREC:  cpu time    8.8588: real time    8.9198
    CHARGE:  cpu time    2.9507: real time    2.9714
    --------------------------------------------
      LOOP:  cpu time   33.4950: real time   33.7387

 eigenvalue-minimisations  :     0
 total energy-change (2. order) :-0.1503504E-06  (-0.9454410E-07)
 number of electron     216.0000000 magnetization 
 augmentation part       -0.5315630 magnetization 

 Free energy of the ion-electron system (eV)
  ---------------------------------------------------
  alpha Z        PSCENC =        47.94900195
  Ewald energy   TEWEN  =     42045.44139955
  -Hartree energ DENC   =    -49012.72370580
  -exchange      EXHF   =         0.00000000
  -V(xc)+E(xc)   XCENC  =       657.72871704
  PAW double counting   =    158679.39667835  -158537.87032188
  entropy T*S    EENTRO =        -0.00000000
  eigenvalues    EBANDS =     -2772.75980168
  atomic energy  EATOM  =      8369.52358910
  ---------------------------------------------------
  free energy    TOTEN  =      -523.31444337 eV

  energy without entropy =     -523.31444337  energy(sigma->0) =     -523.31444337


--------------------------------------------------------------------------------------------------------




--------------------------------------- Iteration      1(  29)  ---------------------------------------


[...]
      9     -22.6884      2.00000
     10     -20.7437      2.00000
     11     -20.7437      2.00000
     12     -20.7434      2.00000
     13     -20.7427      2.00000
     14     -20.7422      2.00000
     15     -20.7420      2.00000
     16     -19.8009      2.00000
     17     -19.8007      2.00000
     18     -19.8003      2.00000
     19     -19.8001      2.00000
     20     -19.7993      2.00000
     21     -19.7990      2.00000
     22     -17.5604      2.00000
     23     -17.5600      2.00000
     24     -17.5592      2.00000
     25     -17.5590      2.00000
     26     -17.5585      2.00000
     27     -17.5584      2.00000
     28     -16.3920      2.00000
     29     -16.3920      2.00000
     30     -16.3909      2.00000
     31     -16.3908      2.00000
     32     -16.3904      2.00000
     33     -16.3903      2.00000
     34     -14.9851      2.00000
     35     -14.9850      2.00000
     36     -14.9843      2.00000
     37     -14.9841      2.00000
     38     -14.9841      2.00000
     39     -14.9838      2.00000
     40     -13.2134      2.00000
     41     -12.4932      2.00000
     42     -12.4930      2.00000
     43     -12.4925      2.00000
     44     -12.4924      2.00000
     45     -12.4913      2.00000
     46     -12.4910      2.00000
     47     -12.2857      2.00000
     48     -12.2855      2.00000
     49     -12.2848      2.00000
     50     -12.2848      2.00000
     51     -12.2847      2.00000
     52     -12.2845      2.00000
     53     -11.8682      2.00000
     54     -11.6731      2.00000
     55     -11.6730      2.00000
     56     -10.9766      2.00000
     57     -10.8232      2.00000
     58     -10.8230      2.00000
     59     -10.8214      2.00000
     60     -10.8210      2.00000
     61     -10.8208      2.00000
     62     -10.8207      2.00000
     63      -9.8000      2.00000
     64      -9.7991      2.00000
     65      -9.7989      2.00000
     66      -9.7983      2.00000
     67      -9.7982      2.00000
     68      -9.7981      2.00000
     69      -9.4914      2.00000
     70      -9.4905      2.00000
     71      -9.4901      2.00000
     72      -9.4900      2.00000
     73      -9.4895      2.00000
     74      -9.4894      2.00000
     75      -9.4850      2.00000
     76      -9.4847      2.00000
     77      -9.4839      2.00000
     78      -9.4837      2.00000
     79      -9.4836      2.00000
     80      -9.4829      2.00000
     81      -8.0355      2.00000
     82      -8.0354      2.00000
     83      -7.7466      2.00000
     84      -7.7448      2.00000
     85      -7.7446      2.00000
     86      -7.7442      2.00000
     87      -7.7432      2.00000
     88      -7.7432      2.00000
     89      -7.5519      2.00000
     90      -7.5516      2.00000
     91      -7.5514      2.00000
     92      -7.5510      2.00000
     93      -7.5507      2.00000
     94      -7.5504      2.00000
     95      -6.6065      2.00000
     96      -6.6064      2.00000
     97      -6.6060      2.00000
     98      -6.6058      2.00000
     99      -6.6053      2.00000
    100      -6.6050      2.00000
    101      -6.1744      2.00000
    102      -6.1721      2.00000
    103      -4.5069      2.00000
    104      -4.5065      2.00000
    105      -4.5060      2.00000
    106      -4.5059      2.00000
    107      -4.5053      2.00000
    108      -4.5052      2.00000
    109      -1.5131      0.00000
    110      -1.5129      0.00000
    111      -1.5125      0.00000
    112      -1.5123      0.00000
    113      -1.5117      0.00000
    114      -1.5114      0.00000
    115       0.4787      0.00000
    116       0.4790      0.00000
    117       0.4795      0.00000
    118       0.4796      0.00000
    119       0.4798      0.00000
    120       0.4813      0.00000
    121       0.6992      0.00000
    122       0.9949      0.00000
    123       1.1856      0.00000
    124       1.1858      0.00000
    125       1.4511      0.00000
    126       1.7722      0.00000
    127       2.0265      0.00000
    128       2.0309      0.00000
    129       2.0406      0.00000
    130       2.0476      0.00000
    131       2.0515      0.00000
    132       2.0531      0.00000
    133       2.1990      0.00000
    134       2.3465      0.00000
    135       2.3467      0.00000
    136       2.3467      0.00000
    137       2.3470      0.00000
    138       2.3512      0.00000
    139       2.3538      0.00000
    140       2.4123      0.00000
    141       2.5972      0.00000
    142       2.7029      0.00000
    143       2.7196      0.00000
    144       2.7319      0.00000
    145       2.7652      0.00000
    146       2.7763      0.00000
    147       2.7857      0.00000
    148       2.7897      0.00000
    149       2.8098      0.00000
    150       2.8374      0.00000
    151       2.8555      0.00000
    152       3.2653      0.00000
    153       3.3457      0.00000
    154       3.3569      0.00000
    155       3.4162      0.00000
    156       3.4246      0.00000
    157       3.6109      0.00000
    158       3.6350      0.00000
    159       3.6676      0.00000
    160       3.8793      0.00000
    161       4.2230      0.00000
    162       4.5718      0.00000
    163       4.8408      0.00000
    164       4.8620      0.00000
    165       4.8727      0.00000
    166       4.8775      0.00000
    167       4.8797      0.00000
    168       4.9025      0.00000


--------------------------------------------------------------------------------------------------------


 soft charge-density along one line, spin component           1
         0         1         2         3         4         5         6         7         8         9
 total charge-density along one line
 
 pseudopotential strength for first ion, spin component:           1
 12.639  21.266   0.000   0.000   0.000   0.000   0.000   0.000
 21.266  35.783   0.000   0.000   0.000   0.000   0.000   0.000
  0.000   0.000  -3.235  -0.000   0.000  -5.794   0.000   0.000
  0.000   0.000  -0.000  -3.235  -0.000   0.000  -5.793  -0.000
  0.000   0.000   0.000  -0.000  -3.235   0.000  -0.000  -5.794
  0.000   0.000  -5.794   0.000   0.000 -10.354   0.000   0.000
  0.000   0.000   0.000  -5.793  -0.000   0.000 -10.352  -0.000
  0.000   0.000   0.000  -0.000  -5.794   0.000  -0.000 -10.354
 total augmentation occupancy for first ion, spin component:           1
 10.264  -3.894  -0.000  -0.002  -0.000   0.000   0.001   0.000
 -3.894   1.507   0.000   0.001   0.000  -0.000  -0.000  -0.000
 -0.000   0.000   8.468  -0.009   0.000  -3.024   0.003  -0.000
 -0.002   0.001  -0.009   4.016  -0.000   0.003  -1.207   0.000
 -0.000   0.000   0.000  -0.000   8.468  -0.000   0.000  -3.024
  0.000  -0.000  -3.024   0.003  -0.000   1.093  -0.001   0.000
  0.001  -0.000   0.003  -1.207   0.000  -0.001   0.368  -0.000
  0.000  -0.000  -0.000   0.000  -3.024   0.000  -0.000   1.093


------------------------ aborting loop because EDIFF is reached ----------------------------------------


    FORLOC:  cpu time    0.1407: real time    0.1416
    FORNL :  cpu time    3.8266: real time    3.8646
    FORCOR:  cpu time    1.6066: real time    1.6159
    OFIELD:  cpu time    0.0029: real time    0.0029

 VOLUME and BASIS-vectors are now :
 -----------------------------------------------------------------------------
  energy-cutoff  :     1000.00
  volume of cell :     3288.85
      direct lattice vectors                 reciprocal lattice vectors
    12.325000000  0.000000000  0.000000000     0.081135903  0.046843835  0.000000000
    -6.162500000 10.673763102  0.000000000     0.000000000  0.093687670  0.000000000
     0.000000000  0.000000000 25.000000000     0.000000000  0.000000000  0.040000000

  length of vectors
    12.325000000 12.325000000 25.000000000     0.093687670  0.093687670  0.040000000


 FORCES acting on ions:
    Electron-Ion                     Ewald-Force                    Non-Local-Force
 -----------------------------------------------------------------------------------------------
   0.108E+01 0.949E+00 0.167E+02   -.108E+01 -.950E+00 -.167E+02   0.499E-02 -.782E-03 0.635E-02
   0.150E+01 0.782E+00 0.180E+02   -.150E+01 -.779E+00 -.180E+02   0.354E-02 -.343E-02 -.593E-02
   0.603E+00 0.165E+01 0.183E+02   -.605E+00 -.165E+01 -.183E+02   -.375E-03 0.119E-01 -.102E-02
   0.760E+00 0.111E+01 0.211E+02   -.758E+00 -.110E+01 -.210E+02   0.120E-01 0.613E-03 -.158E-01
   0.118E+01 0.299E+00 0.171E+02   -.118E+01 -.299E+00 -.171E+02   -.174E-03 -.559E-02 0.344E-02
   0.121E+01 -.263E+00 0.173E+02   -.121E+01 0.265E+00 -.173E+02   -.634E-02 0.315E-02 -.291E-02
   0.146E+01 0.592E+00 0.209E+02   -.147E+01 -.592E+00 -.209E+02   0.124E-01 -.196E-01 -.659E-02
   0.147E+01 -.490E+00 0.221E+02   -.147E+01 0.493E+00 -.220E+02   -.650E-02 -.594E-02 -.595E-02
   -.730E+00 0.156E+01 0.187E+02   0.734E+00 -.156E+01 -.187E+02   -.606E-03 -.127E-01 -.524E-02
   -.980E+00 0.843E+00 0.212E+02   0.982E+00 -.845E+00 -.212E+02   -.264E-01 0.152E-01 0.283E-02
   0.313E+00 -.324E+00 0.162E+02   -.310E+00 0.324E+00 -.162E+02   0.375E-02 -.266E-02 0.221E-03
   0.299E+00 -.249E+00 0.159E+02   -.298E+00 0.249E+00 -.159E+02   -.702E-02 0.341E-02 0.639E-02
   0.482E+00 -.117E+01 0.231E+02   -.484E+00 0.118E+01 -.230E+02   0.271E-01 -.810E-02 -.204E-02
   0.300E+00 -.172E+01 0.198E+02   -.305E+00 0.173E+01 -.198E+02   0.416E-02 0.639E-02 -.168E-01
   -.110E+01 0.661E+00 0.167E+02   0.110E+01 -.663E+00 -.167E+02   0.729E-02 -.396E-02 0.765E-02
   -.141E+01 0.403E+00 0.170E+02   0.141E+01 -.403E+00 -.170E+02   -.182E-02 0.536E-02 -.491E-02
   -.200E+00 -.815E-01 0.154E+02   0.204E+00 0.794E-01 -.154E+02   -.411E-03 0.618E-03 0.220E-02
   0.904E-01 0.689E+00 0.156E+02   -.897E-01 -.689E+00 -.156E+02   -.318E-02 0.179E-02 0.965E-02
   -.285E+00 -.166E+01 0.181E+02   0.284E+00 0.166E+01 -.181E+02   0.623E-02 -.180E-02 0.303E-03
   -.167E+00 -.101E+01 0.164E+02   0.164E+00 0.101E+01 -.164E+02   0.324E-03 -.105E-02 -.650E-03
   0.154E+01 -.664E+00 0.190E+02   -.154E+01 0.665E+00 -.190E+02   -.150E-02 -.240E-02 -.172E-01
   0.109E+01 -.880E+00 0.178E+02   -.109E+01 0.881E+00 -.178E+02   -.677E-02 0.523E-02 -.229E-02
   -.267E+00 0.473E+00 0.232E+02   0.263E+00 -.472E+00 -.232E+02   -.107E-01 0.105E-01 0.110E-02
   -.373E+00 -.746E+00 0.231E+02   0.375E+00 0.744E+00 -.231E+02   0.124E-01 -.153E-01 -.111E-01
   0.595E+00 -.220E+00 0.163E+02   -.593E+00 0.218E+00 -.163E+02   0.352E-02 -.251E-02 -.308E-02
   0.166E+00 0.509E+00 0.161E+02   -.166E+00 -.509E+00 -.161E+02   -.537E-02 0.355E-02 0.592E-02
   -.170E+01 0.191E+00 0.192E+02   0.170E+01 -.194E+00 -.192E+02   0.114E-01 0.801E-02 -.263E-02
   -.160E+01 -.648E+00 0.185E+02   0.160E+01 0.648E+00 -.185E+02   -.898E-02 0.920E-02 0.762E-03
   0.608E+00 -.125E+01 0.180E+02   -.608E+00 0.125E+01 -.180E+02   0.452E-02 0.217E-02 -.702E-02
   0.549E-01 -.552E+00 0.166E+02   -.572E-01 0.553E+00 -.166E+02   -.468E-02 0.245E-02 -.216E-02
   -.114E+01 -.115E+01 0.198E+02   0.114E+01 0.115E+01 -.198E+02   -.122E-01 -.802E-02 -.137E-01
   -.834E+00 -.157E+01 0.180E+02   0.835E+00 0.157E+01 -.180E+02   0.805E-03 -.128E-02 0.198E-02
   0.693E-01 0.336E+00 0.158E+02   -.695E-01 -.336E+00 -.158E+02   0.524E-02 -.477E-02 0.751E-02
   0.198E+00 0.305E+00 0.160E+02   -.201E+00 -.304E+00 -.160E+02   -.221E-02 0.451E-02 -.908E-03
   -.744E+00 0.137E+00 0.163E+02   0.747E+00 -.138E+00 -.163E+02   0.410E-02 -.243E-02 0.638E-02
   -.659E+00 -.302E+00 0.162E+02   0.659E+00 0.302E+00 -.162E+02   -.406E-02 0.236E-02 0.413E-02
   -.125E+01 -.673E+00 0.166E+02   0.125E+01 0.670E+00 -.166E+02   -.119E-02 0.112E-02 0.361E-02
   -.829E+00 -.664E+00 0.160E+02   0.831E+00 0.665E+00 -.160E+02   -.406E-02 0.133E-02 0.939E-02
   -.756E+00 -.956E+00 0.163E+02   0.755E+00 0.957E+00 -.163E+02   -.305E-02 0.412E-03 0.503E-02
   -.113E+00 -.265E+00 0.157E+02   0.114E+00 0.265E+00 -.157E+02   0.203E-02 0.666E-03 0.758E-02
   0.286E+00 0.716E+00 0.157E+02   -.287E+00 -.716E+00 -.158E+02   -.402E-02 0.189E-02 0.725E-02
   0.861E+00 0.131E+01 0.167E+02   -.861E+00 -.131E+01 -.167E+02   -.556E-03 -.836E-03 0.783E-02
   0.953E-01 0.118E+01 0.161E+02   -.917E-01 -.118E+01 -.161E+02   -.434E-03 0.940E-03 0.246E-02
   -.785E-02 0.171E+01 0.176E+02   0.908E-02 -.172E+01 -.177E+02   -.840E-02 0.205E-02 0.523E-02
   -.227E+00 0.421E+00 0.164E+02   0.229E+00 -.423E+00 -.164E+02   0.395E-02 -.298E-02 0.172E-02
   -.822E+00 0.103E+01 0.170E+02   0.823E+00 -.103E+01 -.170E+02   -.625E-02 0.385E-03 -.125E-02
   -.231E+00 -.522E+00 0.162E+02   0.230E+00 0.522E+00 -.163E+02   0.631E-02 -.136E-02 0.628E-02
   -.470E+00 0.165E+00 0.158E+02   0.468E+00 -.164E+00 -.158E+02   -.346E-02 0.333E-02 -.288E-02
   0.457E-01 -.319E+00 0.158E+02   -.462E-01 0.320E+00 -.158E+02   0.440E-02 -.313E-02 0.602E-02
   0.509E+00 0.364E+00 0.158E+02   -.512E+00 -.362E+00 -.158E+02   0.673E-04 0.168E-02 0.345E-02
   -.167E-03 0.248E-01 -.220E+03   -.450E-02 -.206E-01 0.220E+03   -.281E-02 0.179E-02 -.958E-03
   -.228E+03 0.155E+03 -.343E+03   0.279E+03 -.190E+03 0.346E+03   -.523E+02 0.356E+02 -.351E+01
   0.228E+03 -.155E+03 -.321E+03   -.279E+03 0.190E+03 0.318E+03   0.523E+02 -.356E+02 0.316E+01
 -----------------------------------------------------------------------------------------------
   -.850E-02 0.149E-01 0.359E+00   0.171E-12 -.114E-12 -.568E-13   0.785E-02 -.149E-01 -.353E+00
 
 
 POSITION                                       TOTAL-FORCE (eV/Angst)
 -----------------------------------------------------------------------------------
     11.98348      0.00342      0.01417         0.003435     -0.001882     -0.001483
     -0.34154      1.42665      0.01100        -0.000925     -0.000095     -0.003748
      2.12355      0.00315      0.01249        -0.002217      0.010840     -0.007307
      2.12326      1.42653      0.00641         0.013962      0.000963     -0.008608
     10.75099      2.13819      0.01213         0.000892     -0.005816     -0.000200
     -1.57382      3.56123      0.01110        -0.009376      0.004494     -0.001569
      0.89078      2.13854      0.00548         0.009766     -0.019592      0.002926
      0.89099      3.56147      0.00181        -0.012094     -0.002719      0.013613
      4.58864      0.00346      0.01135         0.003627     -0.016311     -0.003775
      4.58894      1.42623      0.00646        -0.023804      0.013494      0.015323
      9.51854      4.27281      0.01369         0.007075     -0.002895      0.000075
     -2.80632      5.69591      0.01434        -0.006986      0.003376      0.000632
      2.12300      4.27302      0.00000         0.025309     -0.005012      0.023030
      2.12335      5.69594      0.00581        -0.000615      0.009246     -0.002233
      7.05344      0.00333      0.01399         0.009484     -0.005683     -0.000638
      7.05353      1.42635      0.01368        -0.001708      0.005080     -0.004254
      8.28610      6.40752      0.01601         0.003217     -0.001235     -0.001117
     -4.03885      7.83070      0.01636        -0.002520      0.001005     -0.000507
      3.35586      6.40753      0.01007         0.005530      0.000695     -0.001346
      3.35599      7.83072      0.01320        -0.003055      0.000239     -0.000813
     -0.34146      4.27290      0.00723        -0.001664     -0.001317     -0.004361
     -0.34138      5.69591      0.00946        -0.009396      0.006536     -0.001096
      3.35624      2.13791      0.00222        -0.014550      0.012214      0.017886
      3.35573      3.56155      0.00139         0.014348     -0.016650      0.010013
     -1.57395      6.40758      0.01311         0.005654     -0.003957     -0.000682
     -1.57385      7.83068      0.01438        -0.005155      0.004031     -0.000242
      5.82093      2.13784      0.01033         0.016188      0.005017     -0.003102
      5.82114      3.56097      0.01156        -0.006318      0.008784     -0.004213
      0.89092      6.40755      0.00907         0.004654      0.002237     -0.002280
      0.89106      7.83068      0.01235        -0.006906      0.004257      0.000282
      4.58871      4.27293      0.00850        -0.013671     -0.006141     -0.011507
      4.58852      5.69606      0.01149         0.002498     -0.001440     -0.004484
      9.51845      0.00337      0.01490         0.005064     -0.004978     -0.000090
      9.51855      1.42644      0.01438        -0.005402      0.005475     -0.000530
      8.28593      2.13803      0.01453         0.007138     -0.003509      0.000335
      8.28613      3.56115      0.01464        -0.004603      0.002156     -0.000277
      7.05356      4.27269      0.01457         0.002845     -0.000945     -0.001071
      7.05362      5.69588      0.01553        -0.002574      0.001574     -0.000418
      5.82112      6.40755      0.01489        -0.003234      0.002037     -0.000406
      5.82102      7.83073      0.01579         0.003073      0.000248     -0.000638
      7.05363      8.54227      0.01631        -0.004846      0.001485      0.000738
     -5.27149      9.96549      0.01495         0.000349     -0.002146     -0.002835
     -2.80638      8.54234      0.01558         0.003287     -0.001522     -0.001675
     -2.80627      9.96553      0.01362        -0.007172      0.000012     -0.004497
     -0.34149      8.54239      0.01378         0.005898     -0.005296      0.000038
     -0.34138      9.96550      0.01354        -0.005959      0.000272     -0.001555
      2.12343      8.54232      0.01336         0.005989     -0.001806      0.000721
      2.12354      9.96544      0.01469        -0.005181      0.004218     -0.002175
      4.58846      8.54235      0.01505         0.003808     -0.002854      0.000775
      4.58853      9.96550      0.01517        -0.002721      0.003538     -0.000161
      3.04930      2.68154      7.49154        -0.007537      0.006028      0.039765
      4.02070      2.02068      7.55596        -1.425385      0.969450     -0.111277
      2.07767      3.34267      7.43208         1.432486     -0.975198      0.071017
 -----------------------------------------------------------------------------------
    total drift:                               -0.000643     -0.000009      0.005753


--------------------------------------------------------------------------------------------------------



  FREE ENERGIE OF THE ION-ELECTRON SYSTEM (eV)
  ---------------------------------------------------
  free  energy   TOTEN  =      -523.31444342 eV

  energy  without entropy=     -523.31444342  energy(sigma->0) =     -523.31444342
 


--------------------------------------------------------------------------------------------------------


    POTLOK:  cpu time    1.8917: real time    1.9022


--------------------------------------------------------------------------------------------------------


 writing wavefunctions
     LOOP+:  cpu time 1044.1246: real time 1052.4581
    4ORBIT:  cpu time    0.0000: real time    0.0000

 total amount of memory used by VASP MPI-rank0   698619. kBytes
=======================================================================

   base      :      30000. kBytes
   nonl-proj :     230539. kBytes
   fftplans  :      40716. kBytes
   grid      :     363125. kBytes
   one-center:        162. kBytes
   wavefun   :      34077. kBytes
 
  
  
 General timing and accounting informations for this job:
 ========================================================
  
                  Total CPU time used (sec):     1089.819
                            User time (sec):     1058.125
                          System time (sec):       31.695
                         Elapsed time (sec):     1099.367
  
                   Maximum memory used (kb):     1242232.
                   Average memory used (kb):          N/A
  
                          Minor page faults:       170204
                          Major page faults:           71
                 Voluntary context switches:         3987
