 vasp.6.2.1 16May21 (build Nov 06 2021 14:46:37) complex                        
  
 executed on             LinuxIFC date 2025.04.06  12:35:02
 running on  112 total cores
 distrk:  each k-point on   56 cores,    2 groups
 distr:  one band on NCORE=   1 cores,   56 groups


--------------------------------------------------------------------------------------------------------


 INCAR:
   ALGO = Conjugate
   KPAR = 2
   NCORE = 32
   ISMEAR = 0
   SIGMA = 0.01
   PREC = Accurate
   EDIFF = 1E-7
   ENCUT = 1000
   ISIF = 0
   METAGGA = R2SCAN
   LASPH = .TRUE.
   SYMPREC = 1E-7

 POTCAR:    PAW_PBE C_h 06Feb2004                 
 POTCAR:    PAW_PBE O_h 06Feb2004                 
 -----------------------------------------------------------------------------
|                                                                             |
|           W    W    AA    RRRRR   N    N  II  N    N   GGGG   !!!           |
|           W    W   A  A   R    R  NN   N  II  NN   N  G    G  !!!           |
|           W    W  A    A  R    R  N N  N  II  N N  N  G       !!!           |
|           W WW W  AAAAAA  RRRRR   N  N N  II  N  N N  G  GGG   !            |
|           WW  WW  A    A  R   R   N   NN  II  N   NN  G    G                |
|           W    W  A    A  R    R  N    N  II  N    N   GGGG   !!!           |
|                                                                             |
|     The value NCORE = 32 specified in the INCAR file was overwritten,       |
|     because it was not compatible with the 56 processes available:          |
|     NCORE = 1                                                               |
|     was used instead, please check that this makes sense for your           |
|     machine.                                                                |
|                                                                             |
 -----------------------------------------------------------------------------

 -----------------------------------------------------------------------------
|                                                                             |
|           W    W    AA    RRRRR   N    N  II  N    N   GGGG   !!!           |
|           W    W   A  A   R    R  NN   N  II  NN   N  G    G  !!!           |
|           W    W  A    A  R    R  N N  N  II  N N  N  G       !!!           |
|           W WW W  AAAAAA  RRRRR   N  N N  II  N  N N  G  GGG   !            |
|           WW  WW  A    A  R   R   N   NN  II  N   NN  G    G                |
|           W    W  A    A  R    R  N    N  II  N    N   GGGG   !!!           |
|                                                                             |
|     For optimal performance we recommend to set                             |
|       NCORE = 2 up to number-of-cores-per-socket                            |
|     NCORE specifies how many cores store one orbital (NPAR=cpu/NCORE).      |
|     This setting can greatly improve the performance of VASP for DFT.       |
|     The default, NCORE=1 might be grossly inefficient on modern             |
|     multi-core architectures or massively parallel machines. Do your        |
|     own testing! More info at https://www.vasp.at/wiki/index.php/NCORE      |
|     Unfortunately you need to use the default for GW and RPA                |
|     calculations (for HF NCORE is supported but not extensively tested      |
|     yet).                                                                   |
|                                                                             |
 -----------------------------------------------------------------------------

 POTCAR:    PAW_PBE C_h 06Feb2004                 
   VRHFIN =C: s2p2                                                                                  
   LEXCH  = PE                                                                                      
   EATOM  =   147.1560 eV,   10.8157 Ry                                                             
                                                                                                    
   TITEL  = PAW_PBE C_h 06Feb2004                                                                   
   LULTRA =        F    use ultrasoft PP ?                                                          
   IUNSCR =        1    unscreen: 0-lin 1-nonlin 2-no                                               
   RPACOR =    0.800    partial core radius                                                         
   POMASS =   12.011; ZVAL   =    4.000    mass and valenz                                          
   RCORE  =    1.100    outmost cutoff radius                                                       
   RWIGS  =    1.630; RWIGS  =    0.863    wigner-seitz radius (au A)                               
   ENMAX  =  700.000; ENMIN  =  500.000 eV                                                          
   ICORE  =        2    local potential                                                             
   LCOR   =        T    correct aug charges                                                         
   LPAW   =        T    paw PP                                                                      
   EAUG   =  946.768                                                                                
   DEXC   =    0.000                                                                                
   RMAX   =    1.128    core radius for proj-oper                                                   
   RAUG   =    1.300    factor for augmentation sphere                                              
   RDEP   =    1.162    radius for radial grids                                                     
   RDEPT  =    1.088    core radius for aug-charge                                                  
                                                                                                    
   Atomic configuration                                                                             
    4 entries                                                                                       
     n  l   j            E        occ.                                                              
     1  0  0.50      -273.3789   2.0000                                                             
     2  0  0.50       -13.7508   2.0000                                                             
     2  1  0.50        -5.2854   2.0000                                                             
     3  2  1.50        -5.4423   0.0000                                                             
   Description                                                                                      
     l       E           TYP  RCUT    TYP  RCUT                                                     
     0    -13.7508458     23  1.100                                                                 
     0     -8.2022199     23  1.100                                                                 
     1     -5.2854383     23  1.100                                                                 
     1      1.1560700     23  1.100                                                                 
     2     -5.4423304      7  1.100                                                                 
  local pseudopotential read in
  partial core-charges read in
  partial kinetic energy density read in
  atomic valenz-charges read in
  non local Contribution for L=           0  read in
    real space projection operators read in
  non local Contribution for L=           0  read in
    real space projection operators read in
  non local Contribution for L=           1  read in
    real space projection operators read in
  non local Contribution for L=           1  read in
    real space projection operators read in
    PAW grid and wavefunctions read in
 
   number of l-projection  operators is LMAX  =           4
   number of lm-projection operators is LMMAX =           8
 
 POTCAR:    PAW_PBE O_h 06Feb2004                 
   VRHFIN =O: s2p4                                                                                  
   LEXCH  = PE                                                                                      
   EATOM  =   432.3788 eV,   31.7789 Ry                                                             
                                                                                                    
   TITEL  = PAW_PBE O_h 06Feb2004                                                                   
   LULTRA =        F    use ultrasoft PP ?                                                          
   IUNSCR =        1    unscreen: 0-lin 1-nonlin 2-no                                               
   RPACOR =    0.800    partial core radius                                                         
   POMASS =   16.000; ZVAL   =    6.000    mass and valenz                                          
   RCORE  =    1.100    outmost cutoff radius                                                       
   RWIGS  =    1.400; RWIGS  =    0.741    wigner-seitz radius (au A)                               
   ENMAX  =  700.000; ENMIN  =  500.000 eV                                                          
   ICORE  =        2    local potential                                                             
   LCOR   =        T    correct aug charges                                                         
   LPAW   =        T    paw PP                                                                      
   EAUG   =  888.804                                                                                
   DEXC   =    0.000                                                                                
   RMAX   =    1.128    core radius for proj-oper                                                   
   RAUG   =    1.300    factor for augmentation sphere                                              
   RDEP   =    1.125    radius for radial grids                                                     
   RDEPT  =    1.088    core radius for aug-charge                                                  
                                                                                                    
   Atomic configuration                                                                             
    4 entries                                                                                       
     n  l   j            E        occ.                                                              
     1  0  0.50      -514.6923   2.0000                                                             
     2  0  0.50       -23.9615   2.0000                                                             
     2  1  0.50        -9.0305   4.0000                                                             
     3  2  1.50        -9.5241   0.0000                                                             
   Description                                                                                      
     l       E           TYP  RCUT    TYP  RCUT                                                     
     0    -23.9615319     23  1.100                                                                 
     0    -25.3221145     23  1.100                                                                 
     1     -9.0304911     23  1.100                                                                 
     1     -5.4802209     23  1.100                                                                 
     2     -9.5240782      7  1.100                                                                 
  local pseudopotential read in
  partial core-charges read in
  partial kinetic energy density read in
  atomic valenz-charges read in
  non local Contribution for L=           0  read in
    real space projection operators read in
  non local Contribution for L=           0  read in
    real space projection operators read in
  non local Contribution for L=           1  read in
    real space projection operators read in
  non local Contribution for L=           1  read in
    real space projection operators read in
    PAW grid and wavefunctions read in
 
   number of l-projection  operators is LMAX  =           4
   number of lm-projection operators is LMMAX =           8
 
 -----------------------------------------------------------------------------
|                                                                             |
|               ----> ADVICE to this user running VASP <----                  |
|                                                                             |
|     You have a (more or less) 'large supercell' and for larger cells it     |
|     might be more efficient to use real-space projection operators.         |
|     Therefore, try LREAL= Auto in the INCAR file.                           |
|     Mind: For very accurate calculation, you might also keep the            |
|     reciprocal projection scheme (i.e. LREAL=.FALSE.).                      |
|                                                                             |
 -----------------------------------------------------------------------------

  PAW_PBE C_h 06Feb2004                 :
 energy of atom  1       EATOM= -147.1560
 kinetic energy error for atom=    0.0031 (will be added to EATOM!!)
  PAW_PBE O_h 06Feb2004                 :
 energy of atom  2       EATOM= -432.3788
 kinetic energy error for atom=    0.0171 (will be added to EATOM!!)
 
 
 POSCAR:  C  O
  positions in cartesian coordinates
  No initial velocities read in

 METAGGA = R2SCA    LMAXTAU =  6    LMIXTAU =  F

 exchange correlation table for  LEXCH =        8
   RHO(1)=    0.500       N(1)  =     2000
   RHO(2)=  100.500       N(2)  =     4000
 


--------------------------------------------------------------------------------------------------------


 ion  position               nearest neighbor table
   1  0.972  0.000  0.001-  50 1.42   2 1.42  42 1.42
   2  0.039  0.134  0.001-   5 1.42   7 1.42   1 1.42
   3  0.172  0.000  0.001-  42 1.42  44 1.42   4 1.42
   4  0.239  0.134  0.000-   7 1.42   3 1.42  23 1.42
   5  0.972  0.200  0.001-   6 1.42   2 1.42  34 1.42
   6  0.039  0.334  0.001-   5 1.42  21 1.42  11 1.42
   7  0.172  0.200  0.000-   8 1.42   2 1.42   4 1.42
   8  0.239  0.334  0.000-  13 1.42   7 1.42  21 1.42
   9  0.372  0.000  0.001-  10 1.42  44 1.42  46 1.42
  10  0.439  0.134  0.000-  27 1.42   9 1.42  23 1.42
  11  0.972  0.400  0.001-  12 1.42  36 1.42   6 1.42
  12  0.039  0.534  0.001-  25 1.42  11 1.42  17 1.42
  13  0.372  0.400  0.000-   8 1.42  14 1.42  24 1.42
  14  0.439  0.534  0.000-  13 1.42  29 1.42  19 1.42
  15  0.572  0.000  0.001-  46 1.42  16 1.42  48 1.42
  16  0.639  0.134  0.001-  15 1.42  35 1.42  27 1.42
  17  0.972  0.600  0.001-  38 1.42  18 1.42  12 1.42
  18  0.039  0.734  0.001-  43 1.42  41 1.42  17 1.42
  19  0.572  0.600  0.001-  14 1.42  20 1.42  32 1.42
  20  0.639  0.734  0.001-  49 1.42  19 1.42  47 1.42
  21  0.172  0.400  0.000-  22 1.42   8 1.42   6 1.42
  22  0.239  0.534  0.000-  21 1.42  29 1.42  25 1.42
  23  0.372  0.200  0.000-  10 1.42   4 1.42  24 1.42
  24  0.439  0.334  0.000-  13 1.42  31 1.42  23 1.42
  25  0.172  0.600  0.001-  26 1.42  12 1.42  22 1.42
  26  0.239  0.734  0.001-  25 1.42  45 1.42  43 1.42
  27  0.572  0.200  0.001-  10 1.42  28 1.42  16 1.42
  28  0.639  0.334  0.001-  27 1.42  37 1.42  31 1.42
  29  0.372  0.600  0.000-  22 1.42  14 1.42  30 1.42
  30  0.439  0.734  0.001-  47 1.42  29 1.42  45 1.42
  31  0.572  0.400  0.000-  32 1.42  28 1.42  24 1.42
  32  0.639  0.534  0.001-  31 1.42  39 1.42  19 1.42
  33  0.772  0.000  0.001-  34 1.42  48 1.42  50 1.42
  34  0.839  0.134  0.001-  33 1.42   5 1.42  35 1.42
  35  0.772  0.200  0.001-  36 1.42  16 1.42  34 1.42
  36  0.839  0.334  0.001-  35 1.42  11 1.42  37 1.42
  37  0.772  0.400  0.001-  28 1.42  38 1.42  36 1.42
  38  0.839  0.534  0.001-  17 1.42  37 1.42  39 1.42
  39  0.772  0.600  0.001-  40 1.42  38 1.42  32 1.42
  40  0.839  0.734  0.001-  39 1.42  49 1.42  41 1.42
  41  0.972  0.800  0.001-  18 1.42  42 1.42  40 1.42
  42  0.039  0.934  0.001-   3 1.42  41 1.42   1 1.42
  43  0.172  0.800  0.001-  18 1.42  44 1.42  26 1.42
  44  0.239  0.934  0.001-   9 1.42  43 1.42   3 1.42
  45  0.372  0.800  0.001-  26 1.42  46 1.42  30 1.42
  46  0.439  0.934  0.001-  15 1.42  45 1.42   9 1.42
  47  0.572  0.800  0.001-  30 1.42  48 1.42  20 1.42
  48  0.639  0.934  0.001-  47 1.42  33 1.42  15 1.42
  49  0.772  0.800  0.001-  50 1.42  20 1.42  40 1.42
  50  0.839  0.934  0.001-  49 1.42   1 1.42  33 1.42
  51  0.373  0.251  0.265-  52 1.18  53 1.18
  52  0.421  0.189  0.268-  51 1.18
  53  0.325  0.313  0.262-  51 1.18
 
  LATTYP: Found a hexagonal cell.
 ALAT       =    12.3250000000
 C/A-ratio  =     1.6227180527
  
  Lattice vectors:
  
 A1 = (  12.3250000000,   0.0000000000,   0.0000000000)
 A2 = (  -6.1625000000,  10.6737631016,   0.0000000000)
 A3 = (   0.0000000000,   0.0000000000,  20.0000000000)


Analysis of symmetry for initial positions (statically):
=====================================================================
 Subroutine PRICEL returns:
 Original cell was already a primitive cell.
 

 Routine SETGRP: Setting up the symmetry group for a 
 hexagonal supercell.


 Subroutine GETGRP returns: Found  1 space group operations
 (whereof  1 operations were pure point group operations)
 out of a pool of 24 trial point group operations.


The static configuration has the point symmetry C_1 .


Analysis of symmetry for dynamics (positions and initial velocities):
=====================================================================
 Subroutine PRICEL returns:
 Original cell was already a primitive cell.
 

 Routine SETGRP: Setting up the symmetry group for a 
 hexagonal supercell.


 Subroutine GETGRP returns: Found  1 space group operations
 (whereof  1 operations were pure point group operations)
 out of a pool of 24 trial point group operations.


The dynamic configuration has the point symmetry C_1 .


 Subroutine INISYM returns: Found  1 space group operations
 (whereof  1 operations are pure point group operations),
 and found     1 'primitive' translations


----------------------------------------------------------------------------------------

                                     Primitive cell                                     

  volume of cell :    2631.0826

  direct lattice vectors                    reciprocal lattice vectors
    12.325000000  0.000000000  0.000000000     0.081135903  0.046843835  0.000000000
    -6.162500000 10.673763102  0.000000000     0.000000000  0.093687670  0.000000000
     0.000000000  0.000000000 20.000000000     0.000000000  0.000000000  0.050000000

  length of vectors
    12.325000000 12.325000000 20.000000000     0.093687670  0.093687670  0.050000000

  position of ions in fractional coordinates (direct lattice)
     0.972450841  0.000320818  0.000708389
     0.039118382  0.133659505  0.000550216
     0.172443627  0.000295449  0.000624535
     0.239096278  0.133647917  0.000320585
     0.972452058  0.200322012  0.000606523
     0.039128360  0.333643771  0.000555187
     0.172451764  0.200354552  0.000273959
     0.239124359  0.333665720  0.000090325
     0.372465565  0.000324403  0.000567391
     0.439137473  0.133619939  0.000322923
     0.972449824  0.400309362  0.000684513
     0.039124981  0.533636789  0.000716763
     0.372416176  0.400329481  0.000000000
     0.439099602  0.533638981  0.000290518
     0.572443676  0.000312125  0.000699475
     0.639110207  0.133631751  0.000684093
     0.972452703  0.600305653  0.000800361
     0.039124495  0.733640359  0.000818141
     0.572433471  0.600306242  0.000503618
     0.639111888  0.733641879  0.000659881
     0.172454630  0.400318228  0.000361306
     0.239120185  0.533636548  0.000473136
     0.372459750  0.200295993  0.000111246
     0.439107096  0.333673419  0.000069702
     0.172452155  0.600311506  0.000655425
     0.239123371  0.733638574  0.000718912
     0.572431082  0.200289171  0.000516621
     0.639112773  0.333618630  0.000577970
     0.372439808  0.600308022  0.000453556
     0.439116090  0.733637858  0.000617737
     0.572469358  0.400320504  0.000424897
     0.639119408  0.533650873  0.000574513
     0.772445723  0.000315427  0.000745201
     0.839116277  0.133640203  0.000719132
     0.772440513  0.200307432  0.000726291
     0.839120241  0.333635728  0.000731834
     0.772446320  0.400298367  0.000728722
     0.839118980  0.533633964  0.000776376
     0.772456143  0.600308173  0.000744639
     0.839115033  0.733643180  0.000789390
     0.972455313  0.800305582  0.000815291
     0.039114714  0.933643289  0.000747563
     0.172457971  0.800312211  0.000779216
     0.239134551  0.933647193  0.000681063
     0.372451396  0.800316674  0.000689249
     0.439124489  0.933644769  0.000676788
     0.572441101  0.800310054  0.000668168
     0.639115067  0.933638985  0.000734556
     0.772445098  0.800313187  0.000752577
     0.839116614  0.933644338  0.000758538
     0.373021009  0.251226878  0.264865773
     0.420879805  0.189313152  0.268086866
     0.325156981  0.313167186  0.261893030

  ion indices of the primitive-cell ions
   primitive index   ion index
                 1           1
                 2           2
                 3           3
                 4           4
                 5           5
                 6           6
                 7           7
                 8           8
                 9           9
                10          10
                11          11
                12          12
                13          13
                14          14
                15          15
                16          16
                17          17
                18          18
                19          19
                20          20
                21          21
                22          22
                23          23
                24          24
                25          25
                26          26
                27          27
                28          28
                29          29
                30          30
                31          31
                32          32
                33          33
                34          34
                35          35
                36          36
                37          37
                38          38
                39          39
                40          40
                41          41
                42          42
                43          43
                44          44
                45          45
                46          46
                47          47
                48          48
                49          49
                50          50
                51          51
                52          52
                53          53

----------------------------------------------------------------------------------------

 
 
 KPOINTS: auto                                    

Automatic generation of k-mesh.
 Grid dimensions read from file:
 generate k-points for:    1    1    1

 Generating k-lattice:

  Cartesian coordinates                     Fractional coordinates (reciprocal lattice)
     0.081135903  0.046843835  0.000000000     1.000000000 -0.000000000  0.000000000
     0.000000000  0.093687670  0.000000000     0.000000000  1.000000000  0.000000000
     0.000000000  0.000000000  0.050000000     0.000000000  0.000000000  1.000000000

  Length of vectors
     0.093687670  0.093687670  0.050000000

  Shift w.r.t. Gamma in fractional coordinates (k-lattice)
     0.000000000  0.000000000  0.000000000

 
 Subroutine IBZKPT returns following result:
 ===========================================
 
 Found      1 irreducible k-points:
 
 Following reciprocal coordinates:
            Coordinates               Weight
  0.000000  0.000000  0.000000      1.000000
 
 Following cartesian coordinates:
            Coordinates               Weight
  0.000000  0.000000  0.000000      1.000000
 


--------------------------------------------------------------------------------------------------------




 Dimension of arrays:
   k-points           NKPTS =      1   k-points in BZ     NKDIM =      1   number of bands    NBANDS=    168
   number of dos      NEDOS =    301   number of ions     NIONS =     53
   non local maximal  LDIM  =      4   non local SUM 2l+1 LMDIM =      8
   total plane-waves  NPLWV = ******
   max r-space proj   IRMAX =      1   max aug-charges    IRDMAX=   9736
   dimension x,y,z NGX =   128 NGY =  128 NGZ =  210
   dimension x,y,z NGXF=   256 NGYF=  256 NGZF=  420
   support grid    NGXF=   256 NGYF=  256 NGZF=  420
   ions per type =              51   2
   NGX,Y,Z   is equivalent  to a cutoff of  17.27, 17.27, 17.46 a.u.
   NGXF,Y,Z  is equivalent  to a cutoff of  34.53, 34.53, 34.91 a.u.

 SYSTEM =  unknown system                          
 POSCAR =   C  O                                   

 Startparameter for this run:
   NWRITE =      2    write-flag & timer
   PREC   = accura    normal or accurate (medium, high low for compatibility)
   ISTART =      0    job   : 0-new  1-cont  2-samecut
   ICHARG =      2    charge: 1-file 2-atom 10-const
   ISPIN  =      1    spin polarized calculation?
   LNONCOLLINEAR =      F non collinear calculations
   LSORBIT =      F    spin-orbit coupling
   INIWAV =      1    electr: 0-lowe 1-rand  2-diag
   LASPH  =      T    aspherical Exc in radial PAW
 Electronic Relaxation 1
   ENCUT  = 1000.0 eV  73.50 Ry    8.57 a.u.  31.78 31.78 51.57*2*pi/ulx,y,z
   ENINI  = 1000.0     initial cutoff
   ENAUG  =  946.8 eV  augmentation charge cutoff
   NELM   =     60;   NELMIN=  2; NELMDL= -5     # of ELM steps 
   EDIFF  = 0.1E-06   stopping-criterion for ELM
   LREAL  =      F    real-space projection
   NLSPLINE    = F    spline interpolate recip. space projectors
   LCOMPAT=      F    compatible to vasp.4.4
   GGA_COMPAT  = T    GGA compatible to vasp.4.4-vasp.4.6
   LMAXPAW     = -100 max onsite density
   LMAXMIX     =    2 max onsite mixed and CHGCAR
   VOSKOWN=      0    Vosko Wilk Nusair interpolation
   ROPT   =    0.00000   0.00000
 Ionic relaxation
   EDIFFG = 0.1E-05   stopping-criterion for IOM
   NSW    =      0    number of steps for IOM
   NBLOCK =      1;   KBLOCK =      1    inner block; outer block 
   IBRION =     -1    ionic relax: 0-MD 1-quasi-New 2-CG
   NFREE  =      0    steps in history (QN), initial steepest desc. (CG)
   ISIF   =      0    stress and relaxation
   IWAVPR =     10    prediction:  0-non 1-charg 2-wave 3-comb
   ISYM   =      2    0-nonsym 1-usesym 2-fastsym
   LCORR  =      T    Harris-Foulkes like correction to forces

   POTIM  = 0.5000    time-step for ionic-motion
   TEIN   =    0.0    initial temperature
   TEBEG  =    0.0;   TEEND  =   0.0 temperature during run
   SMASS  =  -3.00    Nose mass-parameter (am)
   estimated Nose-frequenzy (Omega)   =  0.10E-29 period in steps = 0.13E+47 mass=  -0.347E-26a.u.
   SCALEE = 1.0000    scale energy and forces
   NPACO  =    256;   APACO  = 16.0  distance and # of slots for P.C.
   PSTRESS=    0.0 pullay stress

  Mass of Ions in am
   POMASS =  12.01 16.00
  Ionic Valenz
   ZVAL   =   4.00  6.00
  Atomic Wigner-Seitz radii
   RWIGS  =  -1.00 -1.00
  virtual crystal weights 
   VCA    =   1.00  1.00
   NELECT =     216.0000    total number of electrons
   NUPDOWN=      -1.0000    fix difference up-down

 DOS related values:
   EMIN   =  10.00;   EMAX   =-10.00  energy-range for DOS
   EFERMI =   0.00
   ISMEAR =     0;   SIGMA  =   0.01  broadening in eV -4-tet -1-fermi 0-gaus

 Electronic relaxation 2 (details)
   IALGO  =     58    algorithm
   LDIAG  =      T    sub-space diagonalisation (order eigenvalues)
   LSUBROT=      F    optimize rotation matrix (better conditioning)
   TURBO    =      0    0=normal 1=particle mesh
   IRESTART =      0    0=no restart 2=restart with 2 vectors
   NREBOOT  =      0    no. of reboots
   NMIN     =      0    reboot dimension
   EREF     =   0.00    reference energy to select bands
   IMIX   =      4    mixing-type and parameters
     AMIX     =   0.40;   BMIX     =  1.00
     AMIX_MAG =   1.60;   BMIX_MAG =  1.00
     AMIN     =   0.10
     WC   =   100.;   INIMIX=   1;  MIXPRE=   1;  MAXMIX= -45

 Intra band minimization:
   WEIMIN = 0.0000     energy-eigenvalue tresh-hold
   EBREAK =  0.15E-09  absolut break condition
   DEPER  =   0.30     relativ break condition  

   TIME   =   0.40     timestep for ELM

  volume/ion in A,a.u.               =      49.64       335.01
  Fermi-wavevector in a.u.,A,eV,Ry     =   0.711510  1.344560  6.887909  0.506247
  Thomas-Fermi vector in A             =   1.798641
 
 Write flags
   LWAVE        =      T    write WAVECAR
   LDOWNSAMPLE  =      F    k-point downsampling of WAVECAR
   LCHARG       =      T    write CHGCAR
   LVTOT        =      F    write LOCPOT, total local potential
   LVHAR        =      F    write LOCPOT, Hartree potential only
   LELF         =      F    write electronic localiz. function (ELF)
   LORBIT       =      0    0 simple, 1 ext, 2 COOP (PROOUT), +10 PAW based schemes


 Dipole corrections
   LMONO  =      F    monopole corrections only (constant potential shift)
   LDIPOL =      F    correct potential (dipole corrections)
   IDIPOL =      0    1-x, 2-y, 3-z, 4-all directions 
   EPSILON=  1.0000000 bulk dielectric constant

 Exchange correlation treatment:
   GGA     =    --    GGA type
   LEXCH   =     8    internal setting for exchange type
   VOSKOWN=      0    Vosko Wilk Nusair interpolation
   LHFCALC =     F    Hartree Fock is set to
   LHFONE  =     F    Hartree Fock one center treatment
   AEXX    =    0.0000 exact exchange contribution

 Linear response parameters
   LEPSILON=     F    determine dielectric tensor
   LRPA    =     F    only Hartree local field effects (RPA)
   LNABLA  =     F    use nabla operator in PAW spheres
   LVEL    =     F    velocity operator in full k-point grid
   LINTERFAST=   F  fast interpolation
   KINTER  =     0    interpolate to denser k-point grid
   CSHIFT  =0.1000    complex shift for real part using Kramers Kronig
   OMEGAMAX=  -1.0    maximum frequency
   DEG_THRESHOLD= 0.2000000E-02 threshold for treating states as degnerate
   RTIME   =   -0.100 relaxation time in fs
  (WPLASMAI=    0.000 imaginary part of plasma frequency in eV, 0.658/RTIME)
   DFIELD  = 0.0000000 0.0000000 0.0000000 field for delta impulse in time
 
 Orbital magnetization related:
   ORBITALMAG=     F  switch on orbital magnetization
   LCHIMAG   =     F  perturbation theory with respect to B field
   DQ        =  0.001000  dq finite difference perturbation B field
   LLRAUG    =     F  two centre corrections for induced B field



--------------------------------------------------------------------------------------------------------


 Static calculation
 charge density and potential will be updated during run
 non-spin polarized calculation
 Conjugate gradient for all bands (Freysoldt, et al. PRB 79, 241103 (2009))
 preconditioned conjugated gradient                                        
 perform sub-space diagonalisation
    before iterative eigenvector-optimisation
 modified Broyden-mixing scheme, WC =      100.0
 initial mixing is a Kerker type mixing with AMIX =  0.4000 and BMIX =      1.0000
 Hartree-type preconditioning will be used
 using additional bands           60
 reciprocal scheme for non local part
 use partial core corrections
 no Harris-corrections to forces 
 use gradient corrections 
 use of overlap-Matrix (Vanderbilt PP)
 Gauss-broadening in eV      SIGMA  =   0.01


--------------------------------------------------------------------------------------------------------


  energy-cutoff  :     1000.00
  volume of cell :     2631.08
      direct lattice vectors                 reciprocal lattice vectors
    12.325000000  0.000000000  0.000000000     0.081135903  0.046843835  0.000000000
    -6.162500000 10.673763102  0.000000000     0.000000000  0.093687670  0.000000000
     0.000000000  0.000000000 20.000000000     0.000000000  0.000000000  0.050000000

  length of vectors
    12.325000000 12.325000000 20.000000000     0.093687670  0.093687670  0.050000000


 
 k-points in units of 2pi/SCALE and weight: auto                                    
   0.00000000  0.00000000  0.00000000       1.000
 
 k-points in reciprocal lattice and weights: auto                                    
   0.00000000  0.00000000  0.00000000       1.000
 
 position of ions in fractional coordinates (direct lattice) 
   0.97245084  0.00032082  0.00070839
   0.03911838  0.13365950  0.00055022
   0.17244363  0.00029545  0.00062454
   0.23909628  0.13364792  0.00032058
   0.97245206  0.20032201  0.00060652
   0.03912836  0.33364377  0.00055519
   0.17245176  0.20035455  0.00027396
   0.23912436  0.33366572  0.00009033
   0.37246557  0.00032440  0.00056739
   0.43913747  0.13361994  0.00032292
   0.97244982  0.40030936  0.00068451
   0.03912498  0.53363679  0.00071676
   0.37241618  0.40032948  0.00000000
   0.43909960  0.53363898  0.00029052
   0.57244368  0.00031213  0.00069947
   0.63911021  0.13363175  0.00068409
   0.97245270  0.60030565  0.00080036
   0.03912449  0.73364036  0.00081814
   0.57243347  0.60030624  0.00050362
   0.63911189  0.73364188  0.00065988
   0.17245463  0.40031823  0.00036131
   0.23912018  0.53363655  0.00047314
   0.37245975  0.20029599  0.00011125
   0.43910710  0.33367342  0.00006970
   0.17245216  0.60031151  0.00065542
   0.23912337  0.73363857  0.00071891
   0.57243108  0.20028917  0.00051662
   0.63911277  0.33361863  0.00057797
   0.37243981  0.60030802  0.00045356
   0.43911609  0.73363786  0.00061774
   0.57246936  0.40032050  0.00042490
   0.63911941  0.53365087  0.00057451
   0.77244572  0.00031543  0.00074520
   0.83911628  0.13364020  0.00071913
   0.77244051  0.20030743  0.00072629
   0.83912024  0.33363573  0.00073183
   0.77244632  0.40029837  0.00072872
   0.83911898  0.53363396  0.00077638
   0.77245614  0.60030817  0.00074464
   0.83911503  0.73364318  0.00078939
   0.97245531  0.80030558  0.00081529
   0.03911471  0.93364329  0.00074756
   0.17245797  0.80031221  0.00077922
   0.23913455  0.93364719  0.00068106
   0.37245140  0.80031667  0.00068925
   0.43912449  0.93364477  0.00067679
   0.57244110  0.80031005  0.00066817
   0.63911507  0.93363899  0.00073456
   0.77244510  0.80031319  0.00075258
   0.83911661  0.93364434  0.00075854
   0.37302101  0.25122688  0.26486577
   0.42087980  0.18931315  0.26808687
   0.32515698  0.31316719  0.26189303
 
 position of ions in cartesian coordinates  (Angst):
  11.98347958  0.00342433  0.01416777
  -0.34154264  1.42664989  0.01100432
   2.12354700  0.00315355  0.01249070
   2.12325634  1.42652621  0.00641170
  10.75098721  2.13818970  0.01213047
  -1.57382270  3.56123457  0.01110375
   0.89078307  2.13853702  0.00547917
   0.89099273  3.56146885  0.00180651
   4.58863896  0.00346260  0.01134782
   4.58893648  1.42622757  0.00645846
   9.51853763  4.27280730  0.01369027
  -2.80632132  5.69591267  0.01433526
   2.12299894  4.27302204  0.00000000
   2.12335237  5.69593607  0.00581036
   7.05344483  0.00333155  0.01398950
   7.05352764  1.42635365  0.01368187
   8.28609598  6.40752033  0.01600723
  -4.03884931  7.83070339  0.01636283
   3.35585531  6.40752662  0.01007237
   3.35598594  7.83071962  0.01319763
  -0.34145776  4.27290193  0.00722612
  -0.34137895  5.69591010  0.00946273
   3.35624236  2.13791198  0.00222492
   3.35573251  3.56155103  0.00139405
  -1.57394684  6.40758280  0.01310850
  -1.57385216  7.83068434  0.01437823
   5.82093107  2.13783916  0.01033241
   5.82114012  3.56096622  0.01155939
   0.89092245  6.40754561  0.00907111
   0.89106251  7.83067670  0.01235474
   4.58870974  4.27292622  0.00849795
   4.58852320  5.69606300  0.01149026
   9.51844972  0.00336679  0.01490402
   9.51855036  1.42644387  0.01438264
   8.28593477  2.13803408  0.01452582
   8.28612680  3.56114872  0.01463668
   7.05356221  4.27268994  0.01457444
   7.05362213  5.69588251  0.01552751
   5.82112285  6.40754723  0.01489279
   5.82101669  7.83073350  0.01578780
   7.05362858  8.54227219  0.01630582
  -5.27148792  9.96548729  0.01495127
  -2.80637951  8.54234295  0.01558431
  -2.80626749  9.96552896  0.01362126
  -0.34148805  8.54239058  0.01378498
  -0.34137657  9.96550309  0.01353576
   2.12342586  8.54231992  0.01336337
   2.12354296  9.96544135  0.01469111
   4.58845581  8.54235337  0.01505154
   4.58852904  9.96549848  0.01517076
   3.04929830  2.68153618  5.29731547
   4.02070129  2.02068374  5.36173733
   2.07766701  3.34267235  5.23786060
 


--------------------------------------------------------------------------------------------------------


 k-point   1 :   0.0000 0.0000 0.0000  plane waves:  189031

 maximum and minimum number of plane-waves per node :    189031   189031

 maximum number of plane-waves:    189031
 maximum index in each direction: 
   IXMAX=   31   IYMAX=   31   IZMAX=   51
   IXMIN=  -31   IYMIN=  -31   IZMIN=  -51


 serial   3D FFT for wavefunctions
 parallel 3D FFT for charge:
    minimum data exchange during FFTs selected (reduces bandwidth)


 total amount of memory used by VASP MPI-rank0   556209. kBytes
=======================================================================

   base      :      30000. kBytes
   nonl-proj :     184518. kBytes
   fftplans  :      31725. kBytes
   grid      :     282516. kBytes
   one-center:        162. kBytes
   wavefun   :      27288. kBytes
 
     INWAV:  cpu time    0.0000: real time    0.0000
 Broyden mixing: mesh for mixing (old mesh)
   NGX = 63   NGY = 63   NGZ =103
  (NGX  =256   NGY  =256   NGZ  =420)
  gives a total of 408807 points

 initial charge density was supplied:
 charge density of overlapping atoms calculated
 number of electron     216.0000000 magnetization 
 keeping initial charge density in first step


--------------------------------------------------------------------------------------------------------


 Maximum index for augmentation-charges          459 (set IRDMAX)


--------------------------------------------------------------------------------------------------------


 First call to EWALD:  gamma=   0.128
 Maximum number of real-space cells 3x 3x 2
 Maximum number of reciprocal cells 3x 3x 4

    FEWALD:  cpu time    0.0022: real time    0.0022


--------------------------------------- Iteration      1(   1)  ---------------------------------------


    POTLOK:  cpu time    1.2759: real time    1.2843
    SETDIJ:  cpu time    0.2039: real time    0.2045
    TRIAL :  cpu time   21.9229: real time   22.1017
    CORREC:  cpu time    0.0005: real time    0.0007
    --------------------------------------------
      LOOP:  cpu time   23.4159: real time   23.6059

 eigenvalue-minimisations  :   336
 total energy-change (2. order) : 0.2417572E+04  (-0.1180715E+05)
 number of electron     216.0000000 magnetization 
 augmentation part      216.0000000 magnetization 

 Free energy of the ion-electron system (eV)
  ---------------------------------------------------
  alpha Z        PSCENC =        59.93625244
  Ewald energy   TEWEN  =     31652.86799389
  -Hartree energ DENC   =    -37828.31078546
  -exchange      EXHF   =         0.00000000
  -V(xc)+E(xc)   XCENC  =       605.06387267
  PAW double counting   =      6340.10990386    -6200.63067283
  entropy T*S    EENTRO =        -0.00000000
  eigenvalues    EBANDS =      -580.98823916
  atomic energy  EATOM  =      8369.52358910
  ---------------------------------------------------
  free energy    TOTEN  =      2417.57191451 eV

  energy without entropy =     2417.57191451  energy(sigma->0) =     2417.57191451


--------------------------------------------------------------------------------------------------------




--------------------------------------- Iteration      1(   2)  ---------------------------------------


    TRIAL :  cpu time   31.1636: real time   31.4400
    CORREC:  cpu time    0.0001: real time    0.0001
    --------------------------------------------
      LOOP:  cpu time   31.2124: real time   31.5051

 eigenvalue-minimisations  :   560
 total energy-change (2. order) :-0.2439074E+04  (-0.2309172E+04)
 number of electron     216.0000000 magnetization 
 augmentation part      216.0000000 magnetization 

 Free energy of the ion-electron system (eV)
  ---------------------------------------------------
  alpha Z        PSCENC =        59.93625244
  Ewald energy   TEWEN  =     31652.86799389
  -Hartree energ DENC   =    -37828.31078546
  -exchange      EXHF   =         0.00000000
  -V(xc)+E(xc)   XCENC  =       605.06387267
  PAW double counting   =      6340.10990386    -6200.63067283
  entropy T*S    EENTRO =        -0.00000000
  eigenvalues    EBANDS =     -3020.06179103
  atomic energy  EATOM  =      8369.52358910
  ---------------------------------------------------
  free energy    TOTEN  =       -21.50163736 eV

  energy without entropy =      -21.50163736  energy(sigma->0) =      -21.50163736


--------------------------------------------------------------------------------------------------------




--------------------------------------- Iteration      1(   3)  ---------------------------------------


    TRIAL :  cpu time   24.1678: real time   24.3909
    CORREC:  cpu time    0.0001: real time    0.0001
    --------------------------------------------
      LOOP:  cpu time   24.2003: real time   24.4269

 eigenvalue-minimisations  :   392
 total energy-change (2. order) :-0.5593120E+03  (-0.5564023E+03)
 number of electron     216.0000000 magnetization 
 augmentation part      216.0000000 magnetization 

 Free energy of the ion-electron system (eV)
  ---------------------------------------------------
  alpha Z        PSCENC =        59.93625244
  Ewald energy   TEWEN  =     31652.86799389
  -Hartree energ DENC   =    -37828.31078546
  -exchange      EXHF   =         0.00000000
  -V(xc)+E(xc)   XCENC  =       605.06387267
  PAW double counting   =      6340.10990386    -6200.63067283
  entropy T*S    EENTRO =        -0.00000000
  eigenvalues    EBANDS =     -3579.37379502
  atomic energy  EATOM  =      8369.52358910
  ---------------------------------------------------
  free energy    TOTEN  =      -580.81364135 eV

  energy without entropy =     -580.81364135  energy(sigma->0) =     -580.81364135


--------------------------------------------------------------------------------------------------------




--------------------------------------- Iteration      1(   4)  ---------------------------------------


    TRIAL :  cpu time   26.5313: real time   26.7555
    CORREC:  cpu time    0.0001: real time    0.0001
    --------------------------------------------
      LOOP:  cpu time   26.5853: real time   26.8133

 eigenvalue-minimisations  :   448
 total energy-change (2. order) :-0.2601254E+02  (-0.2585591E+02)
 number of electron     216.0000000 magnetization 
 augmentation part      216.0000000 magnetization 

 Free energy of the ion-electron system (eV)
  ---------------------------------------------------
  alpha Z        PSCENC =        59.93625244
  Ewald energy   TEWEN  =     31652.86799389
  -Hartree energ DENC   =    -37828.31078546
  -exchange      EXHF   =         0.00000000
  -V(xc)+E(xc)   XCENC  =       605.06387267
  PAW double counting   =      6340.10990386    -6200.63067283
  entropy T*S    EENTRO =        -0.00000000
  eigenvalues    EBANDS =     -3605.38633464
  atomic energy  EATOM  =      8369.52358910
  ---------------------------------------------------
  free energy    TOTEN  =      -606.82618097 eV

  energy without entropy =     -606.82618097  energy(sigma->0) =     -606.82618097


--------------------------------------------------------------------------------------------------------




--------------------------------------- Iteration      1(   5)  ---------------------------------------


    TRIAL :  cpu time   26.5007: real time   26.7104
    CORREC:  cpu time    0.0001: real time    0.0003
    CHARGE:  cpu time    2.2929: real time    2.3092
    --------------------------------------------
      LOOP:  cpu time   28.8511: real time   29.0790

 eigenvalue-minimisations  :   448
 total energy-change (2. order) :-0.9141775E+00  (-0.9101515E+00)
 number of electron     216.0000000 magnetization 
 augmentation part       -0.4469115 magnetization 

 Free energy of the ion-electron system (eV)
  ---------------------------------------------------
  alpha Z        PSCENC =        59.93625244
  Ewald energy   TEWEN  =     31652.86799389
  -Hartree energ DENC   =    -37828.31078546
  -exchange      EXHF   =         0.00000000
  -V(xc)+E(xc)   XCENC  =       605.06387267
  PAW double counting   =      6340.10990386    -6200.63067283
  entropy T*S    EENTRO =        -0.00000000
  eigenvalues    EBANDS =     -3606.30051209
  atomic energy  EATOM  =      8369.52358910
  ---------------------------------------------------
  free energy    TOTEN  =      -607.74035842 eV

  energy without entropy =     -607.74035842  energy(sigma->0) =     -607.74035842


--------------------------------------------------------------------------------------------------------




--------------------------------------- Iteration      1(   6)  ---------------------------------------


    POTLOK:  cpu time    1.2516: real time    1.2667
    SETDIJ:  cpu time    0.1905: real time    0.1912
    TRIAL :  cpu time   15.5544: real time   15.6791
    CORREC:  cpu time    6.8921: real time    6.9427
    CHARGE:  cpu time    2.2833: real time    2.3001
    --------------------------------------------
      LOOP:  cpu time   26.2397: real time   26.4491

 eigenvalue-minimisations  :     0
 total energy-change (2. order) : 0.9799923E+02  (-0.1135138E+02)
 number of electron     216.0000000 magnetization 
 augmentation part       -0.5048067 magnetization 

 Free energy of the ion-electron system (eV)
  ---------------------------------------------------
  alpha Z        PSCENC =        59.93625244
  Ewald energy   TEWEN  =     31652.86799389
  -Hartree energ DENC   =    -39142.70351935
  -exchange      EXHF   =         0.00000000
  -V(xc)+E(xc)   XCENC  =       676.77842246
  PAW double counting   =    119382.49450941  -119242.90989202
  entropy T*S    EENTRO =        -0.00000000
  eigenvalues    EBANDS =     -2265.72848577
  atomic energy  EATOM  =      8369.52358910
  ---------------------------------------------------
  free energy    TOTEN  =      -509.74112985 eV

  energy without entropy =     -509.74112985  energy(sigma->0) =     -509.74112985


--------------------------------------------------------------------------------------------------------




--------------------------------------- Iteration      1(   7)  ---------------------------------------


    POTLOK:  cpu time    1.2463: real time    1.2550
    SETDIJ:  cpu time    0.1949: real time    0.1957
    TRIAL :  cpu time   15.5549: real time   15.6916
    CORREC:  cpu time    6.8759: real time    6.9314
    CHARGE:  cpu time    2.2873: real time    2.3063
    --------------------------------------------
      LOOP:  cpu time   26.2224: real time   26.4437

 eigenvalue-minimisations  :     0
 total energy-change (2. order) :-0.1136700E+02  (-0.1469150E+01)
 number of electron     216.0000000 magnetization 
 augmentation part       -0.5381247 magnetization 

 Free energy of the ion-electron system (eV)
  ---------------------------------------------------
  alpha Z        PSCENC =        59.93625244
  Ewald energy   TEWEN  =     31652.86799389
  -Hartree energ DENC   =    -38738.70596439
  -exchange      EXHF   =         0.00000000
  -V(xc)+E(xc)   XCENC  =       659.04588352
  PAW double counting   =    138562.66983359  -138421.33516203
  entropy T*S    EENTRO =        -0.00000000
  eigenvalues    EBANDS =     -2665.11056089
  atomic energy  EATOM  =      8369.52358910
  ---------------------------------------------------
  free energy    TOTEN  =      -521.10813477 eV

  energy without entropy =     -521.10813477  energy(sigma->0) =     -521.10813477


--------------------------------------------------------------------------------------------------------




--------------------------------------- Iteration      1(   8)  ---------------------------------------


    POTLOK:  cpu time    1.2542: real time    1.2615
    SETDIJ:  cpu time    0.1870: real time    0.1876
    TRIAL :  cpu time   15.5506: real time   15.6775
    CORREC:  cpu time    6.8779: real time    6.9299
    CHARGE:  cpu time    2.2829: real time    2.3001
    --------------------------------------------
      LOOP:  cpu time   26.1937: real time   26.4089

 eigenvalue-minimisations  :     0
 total energy-change (2. order) :-0.1469041E+01  (-0.4502318E+00)
 number of electron     216.0000000 magnetization 
 augmentation part       -0.5405479 magnetization 

 Free energy of the ion-electron system (eV)
  ---------------------------------------------------
  alpha Z        PSCENC =        59.93625244
  Ewald energy   TEWEN  =     31652.86799389
  -Hartree energ DENC   =    -38710.01005456
  -exchange      EXHF   =         0.00000000
  -V(xc)+E(xc)   XCENC  =       657.99373336
  PAW double counting   =    148217.70887747  -148076.25082377
  entropy T*S    EENTRO =        -0.00000000
  eigenvalues    EBANDS =     -2694.34674332
  atomic energy  EATOM  =      8369.52358910
  ---------------------------------------------------
  free energy    TOTEN  =      -522.57717539 eV

  energy without entropy =     -522.57717539  energy(sigma->0) =     -522.57717539


--------------------------------------------------------------------------------------------------------




--------------------------------------- Iteration      1(   9)  ---------------------------------------


    POTLOK:  cpu time    1.2493: real time    1.2571
    SETDIJ:  cpu time    0.1955: real time    0.1962
    TRIAL :  cpu time   15.5624: real time   15.6854
    CORREC:  cpu time    6.8826: real time    6.9319
    CHARGE:  cpu time    2.2919: real time    2.3091
    --------------------------------------------
      LOOP:  cpu time   26.2260: real time   26.4248

 eigenvalue-minimisations  :     0
 total energy-change (2. order) :-0.4502127E+00  (-0.1715397E+00)
 number of electron     216.0000000 magnetization 
 augmentation part       -0.5386763 magnetization 

 Free energy of the ion-electron system (eV)
  ---------------------------------------------------
  alpha Z        PSCENC =        59.93625244
  Ewald energy   TEWEN  =     31652.86799389
  -Hartree energ DENC   =    -38717.73577792
  -exchange      EXHF   =         0.00000000
  -V(xc)+E(xc)   XCENC  =       657.99602699
  PAW double counting   =    155976.05255714  -155834.52740614
  entropy T*S    EENTRO =        -0.00000000
  eigenvalues    EBANDS =     -2687.14062355
  atomic energy  EATOM  =      8369.52358910
  ---------------------------------------------------
  free energy    TOTEN  =      -523.02738805 eV

  energy without entropy =     -523.02738805  energy(sigma->0) =     -523.02738805


--------------------------------------------------------------------------------------------------------




--------------------------------------- Iteration      1(  10)  ---------------------------------------


    POTLOK:  cpu time    1.2516: real time    1.2592
    SETDIJ:  cpu time    0.1935: real time    0.1942
    TRIAL :  cpu time   15.5559: real time   15.6875
    CORREC:  cpu time    6.8751: real time    6.9228
    CHARGE:  cpu time    2.2880: real time    2.3046
    --------------------------------------------
      LOOP:  cpu time   26.2143: real time   26.4231

 eigenvalue-minimisations  :     0
 total energy-change (2. order) :-0.1714238E+00  (-0.7469976E-01)
 number of electron     216.0000000 magnetization 
 augmentation part       -0.5341042 magnetization 

 Free energy of the ion-electron system (eV)
  ---------------------------------------------------
  alpha Z        PSCENC =        59.93625244
  Ewald energy   TEWEN  =     31652.86799389
  -Hartree energ DENC   =    -38717.54955324
  -exchange      EXHF   =         0.00000000
  -V(xc)+E(xc)   XCENC  =       657.92415239
  PAW double counting   =    159742.54748502  -159600.97726709
  entropy T*S    EENTRO =        -0.00000000
  eigenvalues    EBANDS =     -2687.47146435
  atomic energy  EATOM  =      8369.52358910
  ---------------------------------------------------
  free energy    TOTEN  =      -523.19881184 eV

  energy without entropy =     -523.19881184  energy(sigma->0) =     -523.19881184


--------------------------------------------------------------------------------------------------------




--------------------------------------- Iteration      1(  11)  ---------------------------------------


    POTLOK:  cpu time    1.2500: real time    1.2571
    SETDIJ:  cpu time    0.1897: real time    0.1903
    TRIAL :  cpu time   15.5523: real time   15.6632
    CORREC:  cpu time    6.8954: real time    6.9549
    CHARGE:  cpu time    2.2825: real time    2.2986
    --------------------------------------------
      LOOP:  cpu time   26.2243: real time   26.4318

 eigenvalue-minimisations  :     0
 total energy-change (2. order) :-0.7454321E-01  (-0.2925741E-01)
 number of electron     216.0000000 magnetization 
 augmentation part       -0.5308335 magnetization 

 Free energy of the ion-electron system (eV)
  ---------------------------------------------------
  alpha Z        PSCENC =        59.93625244
  Ewald energy   TEWEN  =     31652.86799389
  -Hartree energ DENC   =    -38712.06297735
  -exchange      EXHF   =         0.00000000
  -V(xc)+E(xc)   XCENC  =       657.85400148
  PAW double counting   =    160542.04603628  -160400.49386956
  entropy T*S    EENTRO =        -0.00000000
  eigenvalues    EBANDS =     -2692.94438133
  atomic energy  EATOM  =      8369.52358910
  ---------------------------------------------------
  free energy    TOTEN  =      -523.27335504 eV

  energy without entropy =     -523.27335504  energy(sigma->0) =     -523.27335504


--------------------------------------------------------------------------------------------------------




--------------------------------------- Iteration      1(  12)  ---------------------------------------


    POTLOK:  cpu time    1.2533: real time    1.2610
    SETDIJ:  cpu time    0.1888: real time    0.1895
    TRIAL :  cpu time   15.5567: real time   15.6784
    CORREC:  cpu time    6.8701: real time    6.9354
    CHARGE:  cpu time    2.2838: real time    2.3006
    --------------------------------------------
      LOOP:  cpu time   26.1657: real time   26.4225

 eigenvalue-minimisations  :     0
 total energy-change (2. order) :-0.2921074E-01  (-0.9422020E-02)
 number of electron     216.0000000 magnetization 
 augmentation part       -0.5305753 magnetization 

 Free energy of the ion-electron system (eV)
  ---------------------------------------------------
  alpha Z        PSCENC =        59.93625244
  Ewald energy   TEWEN  =     31652.86799389
  -Hartree energ DENC   =    -38707.91797491
  -exchange      EXHF   =         0.00000000
  -V(xc)+E(xc)   XCENC  =       657.79109436
  PAW double counting   =    160088.89424075  -159947.36760126
  entropy T*S    EENTRO =        -0.00000000
  eigenvalues    EBANDS =     -2697.03016016
  atomic energy  EATOM  =      8369.52358910
  ---------------------------------------------------
  free energy    TOTEN  =      -523.30256578 eV

  energy without entropy =     -523.30256578  energy(sigma->0) =     -523.30256578


--------------------------------------------------------------------------------------------------------




--------------------------------------- Iteration      1(  13)  ---------------------------------------


    POTLOK:  cpu time    1.2496: real time    1.2569
    SETDIJ:  cpu time    0.1904: real time    0.1910
    TRIAL :  cpu time   15.5411: real time   15.6634
    CORREC:  cpu time    6.8850: real time    6.9343
    CHARGE:  cpu time    2.2885: real time    2.3072
    --------------------------------------------
      LOOP:  cpu time   26.2205: real time   26.4204

 eigenvalue-minimisations  :     0
 total energy-change (2. order) :-0.9403014E-02  (-0.2624832E-02)
 number of electron     216.0000000 magnetization 
 augmentation part       -0.5310149 magnetization 

 Free energy of the ion-electron system (eV)
  ---------------------------------------------------
  alpha Z        PSCENC =        59.93625244
  Ewald energy   TEWEN  =     31652.86799389
  -Hartree energ DENC   =    -38706.57440304
  -exchange      EXHF   =         0.00000000
  -V(xc)+E(xc)   XCENC  =       657.74123717
  PAW double counting   =    159454.41619142  -159312.89386721
  entropy T*S    EENTRO =        -0.00000000
  eigenvalues    EBANDS =     -2698.32896257
  atomic energy  EATOM  =      8369.52358910
  ---------------------------------------------------
  free energy    TOTEN  =      -523.31196880 eV

  energy without entropy =     -523.31196880  energy(sigma->0) =     -523.31196880


--------------------------------------------------------------------------------------------------------




--------------------------------------- Iteration      1(  14)  ---------------------------------------


    POTLOK:  cpu time    1.2510: real time    1.2583
    SETDIJ:  cpu time    0.1946: real time    0.1952
    TRIAL :  cpu time   15.5530: real time   15.6750
    CORREC:  cpu time    6.8649: real time    6.9226
    CHARGE:  cpu time    2.2794: real time    2.3014
    --------------------------------------------
      LOOP:  cpu time   26.1951: real time   26.4057

 eigenvalue-minimisations  :     0
 total energy-change (2. order) :-0.2613536E-02  (-0.6934700E-03)
 number of electron     216.0000000 magnetization 
 augmentation part       -0.5312687 magnetization 

 Free energy of the ion-electron system (eV)
  ---------------------------------------------------
  alpha Z        PSCENC =        59.93625244
  Ewald energy   TEWEN  =     31652.86799389
  -Hartree energ DENC   =    -38706.60836266
  -exchange      EXHF   =         0.00000000
  -V(xc)+E(xc)   XCENC  =       657.72957588
  PAW double counting   =    159057.11905332  -158915.59580642
  entropy T*S    EENTRO =        -0.00000000
  eigenvalues    EBANDS =     -2698.28687789
  atomic energy  EATOM  =      8369.52358910
  ---------------------------------------------------
  free energy    TOTEN  =      -523.31458233 eV

  energy without entropy =     -523.31458233  energy(sigma->0) =     -523.31458233


--------------------------------------------------------------------------------------------------------




--------------------------------------- Iteration      1(  15)  ---------------------------------------


    POTLOK:  cpu time    1.2498: real time    1.2571
    SETDIJ:  cpu time    0.1924: real time    0.1931
    TRIAL :  cpu time   15.5434: real time   15.6711
    CORREC:  cpu time    6.8926: real time    6.9408
    CHARGE:  cpu time    2.2835: real time    2.3003
    --------------------------------------------
      LOOP:  cpu time   26.2064: real time   26.4294

 eigenvalue-minimisations  :     0
 total energy-change (2. order) :-0.6889552E-03  (-0.1992824E-03)
 number of electron     216.0000000 magnetization 
 augmentation part       -0.5314661 magnetization 

 Free energy of the ion-electron system (eV)
  ---------------------------------------------------
  alpha Z        PSCENC =        59.93625244
  Ewald energy   TEWEN  =     31652.86799389
  -Hartree energ DENC   =    -38706.52749768
  -exchange      EXHF   =         0.00000000
  -V(xc)+E(xc)   XCENC  =       657.72450837
  PAW double counting   =    158862.71492335  -158721.19081896
  entropy T*S    EENTRO =        -0.00000000
  eigenvalues    EBANDS =     -2698.36422180
  atomic energy  EATOM  =      8369.52358910
  ---------------------------------------------------
  free energy    TOTEN  =      -523.31527129 eV

  energy without entropy =     -523.31527129  energy(sigma->0) =     -523.31527129


--------------------------------------------------------------------------------------------------------




--------------------------------------- Iteration      1(  16)  ---------------------------------------


    POTLOK:  cpu time    1.2474: real time    1.2550
    SETDIJ:  cpu time    0.1959: real time    0.1966
    TRIAL :  cpu time   15.5448: real time   15.6651
    CORREC:  cpu time    6.8942: real time    6.9431
    CHARGE:  cpu time    2.2831: real time    2.2997
    --------------------------------------------
      LOOP:  cpu time   26.2268: real time   26.4221

 eigenvalue-minimisations  :     0
 total energy-change (2. order) :-0.1972582E-03  (-0.6153225E-04)
 number of electron     216.0000000 magnetization 
 augmentation part       -0.5315420 magnetization 

 Free energy of the ion-electron system (eV)
  ---------------------------------------------------
  alpha Z        PSCENC =        59.93625244
  Ewald energy   TEWEN  =     31652.86799389
  -Hartree energ DENC   =    -38706.42828405
  -exchange      EXHF   =         0.00000000
  -V(xc)+E(xc)   XCENC  =       657.71844462
  PAW double counting   =    158753.01567343  -158611.48996253
  entropy T*S    EENTRO =        -0.00000000
  eigenvalues    EBANDS =     -2698.45917545
  atomic energy  EATOM  =      8369.52358910
  ---------------------------------------------------
  free energy    TOTEN  =      -523.31546855 eV

  energy without entropy =     -523.31546855  energy(sigma->0) =     -523.31546855


--------------------------------------------------------------------------------------------------------




--------------------------------------- Iteration      1(  17)  ---------------------------------------


    POTLOK:  cpu time    1.2568: real time    1.2643
    SETDIJ:  cpu time    0.1893: real time    0.1900
    TRIAL :  cpu time   15.5729: real time   15.6910
    CORREC:  cpu time    6.9084: real time    6.9568
    CHARGE:  cpu time    2.2829: real time    2.3014
    --------------------------------------------
      LOOP:  cpu time   26.2545: real time   26.4530

 eigenvalue-minimisations  :     0
 total energy-change (2. order) :-0.6048832E-04  (-0.2121337E-04)
 number of electron     216.0000000 magnetization 
 augmentation part       -0.5315666 magnetization 

 Free energy of the ion-electron system (eV)
  ---------------------------------------------------
  alpha Z        PSCENC =        59.93625244
  Ewald energy   TEWEN  =     31652.86799389
  -Hartree energ DENC   =    -38706.56234596
  -exchange      EXHF   =         0.00000000
  -V(xc)+E(xc)   XCENC  =       657.72394671
  PAW double counting   =    158687.48071316  -158545.95482510
  entropy T*S    EENTRO =        -0.00000000
  eigenvalues    EBANDS =     -2698.33085327
  atomic energy  EATOM  =      8369.52358910
  ---------------------------------------------------
  free energy    TOTEN  =      -523.31552904 eV

  energy without entropy =     -523.31552904  energy(sigma->0) =     -523.31552904


--------------------------------------------------------------------------------------------------------




--------------------------------------- Iteration      1(  18)  ---------------------------------------


    POTLOK:  cpu time    1.2487: real time    1.2578
    SETDIJ:  cpu time    0.1898: real time    0.1904
    TRIAL :  cpu time   15.5290: real time   15.6677
    CORREC:  cpu time    6.8773: real time    6.9329
    CHARGE:  cpu time    2.2861: real time    2.3053
    --------------------------------------------
      LOOP:  cpu time   26.2012: real time   26.4280

 eigenvalue-minimisations  :     0
 total energy-change (2. order) :-0.2131518E-04  (-0.6771069E-05)
 number of electron     216.0000000 magnetization 
 augmentation part       -0.5315813 magnetization 

 Free energy of the ion-electron system (eV)
  ---------------------------------------------------
  alpha Z        PSCENC =        59.93625244
  Ewald energy   TEWEN  =     31652.86799389
  -Hartree energ DENC   =    -38706.61474564
  -exchange      EXHF   =         0.00000000
  -V(xc)+E(xc)   XCENC  =       657.72570272
  PAW double counting   =    158661.66856031  -158520.14237540
  entropy T*S    EENTRO =        -0.00000000
  eigenvalues    EBANDS =     -2698.28052778
  atomic energy  EATOM  =      8369.52358910
  ---------------------------------------------------
  free energy    TOTEN  =      -523.31555035 eV

  energy without entropy =     -523.31555035  energy(sigma->0) =     -523.31555035


--------------------------------------------------------------------------------------------------------




--------------------------------------- Iteration      1(  19)  ---------------------------------------


    POTLOK:  cpu time    1.2473: real time    1.2560
    SETDIJ:  cpu time    0.1918: real time    0.1924
    TRIAL :  cpu time   15.5503: real time   15.6800
    CORREC:  cpu time    6.8802: real time    6.9323
    CHARGE:  cpu time    2.2837: real time    2.3012
    --------------------------------------------
      LOOP:  cpu time   26.2092: real time   26.4235

 eigenvalue-minimisations  :     0
 total energy-change (2. order) :-0.7015915E-05  (-0.2279578E-05)
 number of electron     216.0000000 magnetization 
 augmentation part       -0.5315845 magnetization 

 Free energy of the ion-electron system (eV)
  ---------------------------------------------------
  alpha Z        PSCENC =        59.93625244
  Ewald energy   TEWEN  =     31652.86799389
  -Hartree energ DENC   =    -38706.61594448
  -exchange      EXHF   =         0.00000000
  -V(xc)+E(xc)   XCENC  =       657.72552992
  PAW double counting   =    158661.72179176  -158520.19538025
  entropy T*S    EENTRO =        -0.00000000
  eigenvalues    EBANDS =     -2698.27938975
  atomic energy  EATOM  =      8369.52358910
  ---------------------------------------------------
  free energy    TOTEN  =      -523.31555737 eV

  energy without entropy =     -523.31555737  energy(sigma->0) =     -523.31555737


--------------------------------------------------------------------------------------------------------




--------------------------------------- Iteration      1(  20)  ---------------------------------------


    POTLOK:  cpu time    1.2519: real time    1.2590
    SETDIJ:  cpu time    0.2054: real time    0.2061
    TRIAL :  cpu time   15.5437: real time   15.6670
    CORREC:  cpu time    6.8803: real time    6.9387
    CHARGE:  cpu time    2.2875: real time    2.3040
    --------------------------------------------
      LOOP:  cpu time   26.2216: real time   26.4316

 eigenvalue-minimisations  :     0
 total energy-change (2. order) :-0.2358487E-05  (-0.7086079E-06)
 number of electron     216.0000000 magnetization 
 augmentation part       -0.5315836 magnetization 

 Free energy of the ion-electron system (eV)
  ---------------------------------------------------
  alpha Z        PSCENC =        59.93625244
  Ewald energy   TEWEN  =     31652.86799389
  -Hartree energ DENC   =    -38706.63370967
  -exchange      EXHF   =         0.00000000
  -V(xc)+E(xc)   XCENC  =       657.72624205
  PAW double counting   =    158668.57350310  -158527.04709989
  entropy T*S    EENTRO =        -0.00000000
  eigenvalues    EBANDS =     -2698.26233076
  atomic energy  EATOM  =      8369.52358910
  ---------------------------------------------------
  free energy    TOTEN  =      -523.31555973 eV

  energy without entropy =     -523.31555973  energy(sigma->0) =     -523.31555973


--------------------------------------------------------------------------------------------------------




--------------------------------------- Iteration      1(  21)  ---------------------------------------


    POTLOK:  cpu time    1.2490: real time    1.2582
    SETDIJ:  cpu time    0.1908: real time    0.1915
    TRIAL :  cpu time   15.5361: real time   15.6721
    CORREC:  cpu time    6.8796: real time    6.9348
    CHARGE:  cpu time    2.2726: real time    2.3021
    --------------------------------------------
      LOOP:  cpu time   26.1458: real time   26.4066

 eigenvalue-minimisations  :     0
 total energy-change (2. order) :-0.7199124E-06  (-0.2409645E-06)
 number of electron     216.0000000 magnetization 
 augmentation part       -0.5315785 magnetization 

 Free energy of the ion-electron system (eV)
  ---------------------------------------------------
  alpha Z        PSCENC =        59.93625244
  Ewald energy   TEWEN  =     31652.86799389
  -Hartree energ DENC   =    -38706.64206787
  -exchange      EXHF   =         0.00000000
  -V(xc)+E(xc)   XCENC  =       657.72640249
  PAW double counting   =    158674.47451550  -158532.94811212
  entropy T*S    EENTRO =        -0.00000000
  eigenvalues    EBANDS =     -2698.25413387
  atomic energy  EATOM  =      8369.52358910
  ---------------------------------------------------
  free energy    TOTEN  =      -523.31556045 eV

  energy without entropy =     -523.31556045  energy(sigma->0) =     -523.31556045


--------------------------------------------------------------------------------------------------------




--------------------------------------- Iteration      1(  22)  ---------------------------------------


    POTLOK:  cpu time    1.2497: real time    1.2572
    SETDIJ:  cpu time    0.1938: real time    0.1944
    TRIAL :  cpu time   15.5352: real time   15.6817
    CORREC:  cpu time    6.8893: real time    6.9385
    CHARGE:  cpu time    2.2814: real time    2.2982
    --------------------------------------------
      LOOP:  cpu time   26.2032: real time   26.4319

 eigenvalue-minimisations  :     0
 total energy-change (2. order) :-0.2307352E-06  (-0.1082019E-06)
 number of electron     216.0000000 magnetization 
 augmentation part       -0.5315732 magnetization 

 Free energy of the ion-electron system (eV)
  ---------------------------------------------------
  alpha Z        PSCENC =        59.93625244
  Ewald energy   TEWEN  =     31652.86799389
  -Hartree energ DENC   =    -38706.64323312
  -exchange      EXHF   =         0.00000000
  -V(xc)+E(xc)   XCENC  =       657.72638957
  PAW double counting   =    158678.01367016  -158536.48729462
  entropy T*S    EENTRO =        -0.00000000
  eigenvalues    EBANDS =     -2698.25292810
  atomic energy  EATOM  =      8369.52358910
  ---------------------------------------------------
  free energy    TOTEN  =      -523.31556068 eV

  energy without entropy =     -523.31556068  energy(sigma->0) =     -523.31556068


--------------------------------------------------------------------------------------------------------




--------------------------------------- Iteration      1(  23)  ---------------------------------------


    POTLOK:  cpu time    1.2543: real time    1.2621
    SETDIJ:  cpu time    0.1888: real time    0.1894
    TRIAL :  cpu time   15.5452: real time   15.6619
    CORREC:  cpu time    6.8848: real time    6.9358
    EDDIAG:  cpu time    3.2015: real time    3.2286
    CHARGE:  cpu time    2.2823: real time    2.2989
    --------------------------------------------
      LOOP:  cpu time   29.3841: real time   29.6082

 eigenvalue-minimisations  :     0
 total energy-change (2. order) :-0.8934876E-07  (-0.8076095E-07)
 number of electron     216.0000000 magnetization 
 augmentation part       -0.5315698 magnetization 

 Free energy of the ion-electron system (eV)
  ---------------------------------------------------
  alpha Z        PSCENC =        59.93625244
  Ewald energy   TEWEN  =     31652.86799389
  -Hartree energ DENC   =    -38706.64290310
  -exchange      EXHF   =         0.00000000
  -V(xc)+E(xc)   XCENC  =       657.72638844
  PAW double counting   =    158680.13779319  -158538.61145515
  entropy T*S    EENTRO =        -0.00000000
  eigenvalues    EBANDS =     -2698.25321957
  atomic energy  EATOM  =      8369.52358910
  ---------------------------------------------------
  free energy    TOTEN  =      -523.31556077 eV

  energy without entropy =     -523.31556077  energy(sigma->0) =     -523.31556077


--------------------------------------------------------------------------------------------------------


  average scaling for gradient   1.0057


 average (electrostatic) potential at core
  the test charge radii are     0.5770  0.5955
  (the norm of the test charge is              1.0000)
       1 -87.6332       2 -87.6319       3 -87.6345       4 -87.6363       5 -87.6302
       6 -87.6294       7 -87.6341       8 -87.6315       9 -87.6315      10 -87.6338
      11 -87.6295      12 -87.6301      13 -87.6335      14 -87.6312      15 -87.6293
      16 -87.6299      17 -87.6310      18 -87.6321      19 -87.6328      20 -87.6311
      21 -87.6293      22 -87.6288      23 -87.6372      24 -87.6370      25 -87.6291
      26 -87.6299      27 -87.6318      28 -87.6339      29 -87.6294      30 -87.6292
      31 -87.6352      32 -87.6336      33 -87.6306      34 -87.6298      35 -87.6297
      36 -87.6304      37 -87.6317      38 -87.6325      39 -87.6327      40 -87.6323
      41 -87.6325      42 -87.6332      43 -87.6312      44 -87.6331      45 -87.6292
      46 -87.6297      47 -87.6301      48 -87.6295      49 -87.6323      50 -87.6314
      51 -91.5270      52-123.9103      53-123.9096
 
 
 
 E-fermi :  -4.0579     XC(G=0):  -2.3474     alpha+bet : -2.1113

 Fermi energy:        -4.0578629908

 k-point     1 :       0.0000    0.0000    0.0000
  band No.  band energies     occupation 
      1     -28.8066      2.00000
      2     -27.6981      2.00000
      3     -23.3383      2.00000
      4     -22.3459      2.00000
      5     -22.3455      2.00000
      6     -22.3454      2.00000
      7     -22.3439      2.00000
      8     -22.3432      2.00000
      9     -22.3431      2.00000
     10     -20.3987      2.00000
     11     -20.3985      2.00000
     12     -20.3982      2.00000
     13     -20.3978      2.00000
     14     -20.3978      2.00000
     15     -20.3976      2.00000
     16     -19.4559      2.00000
     17     -19.4558      2.00000
     18     -19.4555      2.00000
     19     -19.4549      2.00000
     20     -19.4547      2.00000
     21     -19.4545      2.00000
     22     -17.2156      2.00000
     23     -17.2154      2.00000
     24     -17.2145      2.00000
     25     -17.2143      2.00000
     26     -17.2135      2.00000
     27     -17.2133      2.00000
     28     -16.0469      2.00000
     29     -16.0469      2.00000
     30     -16.0464      2.00000
     31     -16.0463      2.00000
     32     -16.0455      2.00000
     33     -16.0454      2.00000
     34     -14.6403      2.00000
     35     -14.6402      2.00000
     36     -14.6395      2.00000
     37     -14.6393      2.00000
     38     -14.6393      2.00000
     39     -14.6389      2.00000
     40     -12.8672      2.00000
     41     -12.1483      2.00000
     42     -12.1481      2.00000
     43     -12.1476      2.00000
     44     -12.1476      2.00000
     45     -12.1466      2.00000
     46     -12.1463      2.00000
     47     -11.9409      2.00000
     48     -11.9409      2.00000
     49     -11.9403      2.00000
     50     -11.9402      2.00000
     51     -11.9394      2.00000
     52     -11.9392      2.00000
     53     -11.5220      2.00000
     54     -11.3268      2.00000
     55     -11.3266      2.00000
     56     -10.6317      2.00000
     57     -10.4783      2.00000
     58     -10.4781      2.00000
     59     -10.4766      2.00000
     60     -10.4762      2.00000
     61     -10.4760      2.00000
     62     -10.4760      2.00000
     63      -9.4569      2.00000
     64      -9.4558      2.00000
     65      -9.4542      2.00000
     66      -9.4533      2.00000
     67      -9.4517      2.00000
     68      -9.4517      2.00000
     69      -9.1465      2.00000
     70      -9.1458      2.00000
     71      -9.1455      2.00000
     72      -9.1451      2.00000
     73      -9.1445      2.00000
     74      -9.1444      2.00000
     75      -9.1398      2.00000
     76      -9.1397      2.00000
     77      -9.1394      2.00000
     78      -9.1394      2.00000
     79      -9.1388      2.00000
     80      -9.1380      2.00000
     81      -7.6893      2.00000
     82      -7.6892      2.00000
     83      -7.4017      2.00000
     84      -7.4004      2.00000
     85      -7.4000      2.00000
     86      -7.3995      2.00000
     87      -7.3981      2.00000
     88      -7.3980      2.00000
     89      -7.2068      2.00000
     90      -7.2067      2.00000
     91      -7.2066      2.00000
     92      -7.2061      2.00000
     93      -7.2060      2.00000
     94      -7.2057      2.00000
     95      -6.2624      2.00000
     96      -6.2613      2.00000
     97      -6.2610      2.00000
     98      -6.2608      2.00000
     99      -6.2604      2.00000
    100      -6.2600      2.00000
    101      -5.8296      2.00000
    102      -5.8273      2.00000
    103      -4.1623      2.00000
    104      -4.1622      2.00000
    105      -4.1619      2.00000
    106      -4.1615      2.00000
    107      -4.1596      2.00000
    108      -4.1594      2.00000
    109      -1.1690      0.00000
    110      -1.1687      0.00000
    111      -1.1672      0.00000
    112      -1.1669      0.00000
    113      -1.1667      0.00000
    114      -1.1666      0.00000
    115       0.8226      0.00000
    116       0.8233      0.00000
    117       0.8239      0.00000
    118       0.8247      0.00000
    119       0.8248      0.00000
    120       0.8272      0.00000
    121       0.9372      0.00000
    122       1.4428      0.00000
    123       1.5293      0.00000
    124       1.5307      0.00000
    125       1.9058      0.00000
    126       2.1306      0.00000
    127       2.3224      0.00000
    128       2.3780      0.00000
    129       2.3871      0.00000
    130       2.3953      0.00000
    131       2.4011      0.00000
    132       2.6260      0.00000
    133       2.6903      0.00000
    134       2.6907      0.00000
    135       2.6916      0.00000
    136       2.6921      0.00000
    137       2.6922      0.00000
    138       2.6926      0.00000
    139       2.9431      0.00000
    140       3.0014      0.00000
    141       3.1088      0.00000
    142       3.1111      0.00000
    143       3.1248      0.00000
    144       3.1428      0.00000
    145       3.1875      0.00000
    146       3.1971      0.00000
    147       3.2435      0.00000
    148       3.2802      0.00000
    149       3.2883      0.00000
    150       3.3091      0.00000
    151       3.3141      0.00000
    152       4.3935      0.00000
    153       4.4591      0.00000
    154       4.5629      0.00000
    155       4.7595      0.00000
    156       5.1795      0.00000
    157       5.1801      0.00000
    158       5.2197      0.00000
    159       5.2204      0.00000
    160       5.2210      0.00000
    161       5.2220      0.00000
    162       5.2230      0.00000
    163       5.4753      0.00000
    164       5.5122      0.00000
    165       5.5411      0.00000
    166       5.6023      0.00000
    167       5.7037      0.00000
    168       5.8262      0.00000


--------------------------------------------------------------------------------------------------------


 soft charge-density along one line, spin component           1
         0         1         2         3         4         5         6         7         8         9
 total charge-density along one line
 
 pseudopotential strength for first ion, spin component:           1
 12.626  21.244   0.000   0.000   0.000   0.000   0.000   0.000
 21.244  35.745   0.000   0.000   0.000   0.000   0.000   0.000
  0.000   0.000  -3.230  -0.000   0.000  -5.784   0.000   0.000
  0.000   0.000  -0.000  -3.230  -0.000   0.000  -5.784  -0.000
  0.000   0.000   0.000  -0.000  -3.230   0.000  -0.000  -5.784
  0.000   0.000  -5.784   0.000   0.000 -10.337   0.000   0.000
  0.000   0.000   0.000  -5.784  -0.000   0.000 -10.335  -0.000
  0.000   0.000   0.000  -0.000  -5.784   0.000  -0.000 -10.337
 total augmentation occupancy for first ion, spin component:           1
 10.264  -3.894  -0.000  -0.002   0.000   0.000   0.001  -0.000
 -3.894   1.507   0.000   0.001  -0.000  -0.000  -0.000   0.000
 -0.000   0.000   8.468  -0.009   0.000  -3.024   0.003  -0.000
 -0.002   0.001  -0.009   4.016  -0.000   0.003  -1.207   0.000
  0.000  -0.000   0.000  -0.000   8.468  -0.000   0.000  -3.024
  0.000  -0.000  -3.024   0.003  -0.000   1.093  -0.001   0.000
  0.001  -0.000   0.003  -1.207   0.000  -0.001   0.368  -0.000
 -0.000   0.000  -0.000   0.000  -3.024   0.000  -0.000   1.093


------------------------ aborting loop because EDIFF is reached ----------------------------------------


    FORLOC:  cpu time    0.1052: real time    0.1059
    FORNL :  cpu time    2.8780: real time    2.9121
    FORCOR:  cpu time    1.2625: real time    1.2710
    OFIELD:  cpu time    0.0025: real time    0.0026

 VOLUME and BASIS-vectors are now :
 -----------------------------------------------------------------------------
  energy-cutoff  :     1000.00
  volume of cell :     2631.08
      direct lattice vectors                 reciprocal lattice vectors
    12.325000000  0.000000000  0.000000000     0.081135903  0.046843835  0.000000000
    -6.162500000 10.673763102  0.000000000     0.000000000  0.093687670  0.000000000
     0.000000000  0.000000000 20.000000000     0.000000000  0.000000000  0.050000000

  length of vectors
    12.325000000 12.325000000 20.000000000     0.093687670  0.093687670  0.050000000


 FORCES acting on ions:
    Electron-Ion                     Ewald-Force                    Non-Local-Force
 -----------------------------------------------------------------------------------------------
   0.378E+01 0.328E+01 0.186E+02   -.379E+01 -.328E+01 -.186E+02   0.805E-02 -.122E-02 0.788E-02
   0.550E+01 0.268E+01 0.217E+02   -.551E+01 -.268E+01 -.217E+02   0.871E-02 -.487E-02 -.590E-02
   0.236E+01 0.632E+01 0.239E+02   -.236E+01 -.633E+01 -.239E+02   -.918E-03 0.173E-01 0.520E-02
   0.312E+01 0.452E+01 0.305E+02   -.313E+01 -.452E+01 -.305E+02   0.165E-01 0.275E-02 -.310E-02
   0.403E+01 0.958E+00 0.189E+02   -.404E+01 -.955E+00 -.189E+02   0.238E-02 -.811E-02 0.479E-03
   0.414E+01 -.817E+00 0.191E+02   -.414E+01 0.820E+00 -.191E+02   -.666E-02 0.185E-02 -.750E-02
   0.591E+01 0.216E+01 0.287E+02   -.592E+01 -.215E+01 -.286E+02   0.194E-01 -.232E-01 -.232E-02
   0.573E+01 -.205E+01 0.299E+02   -.574E+01 0.206E+01 -.299E+02   0.281E-03 -.103E-01 -.802E-02
   -.282E+01 0.571E+01 0.241E+02   0.283E+01 -.571E+01 -.241E+02   -.550E-02 -.822E-02 -.731E-02
   -.425E+01 0.357E+01 0.299E+02   0.426E+01 -.358E+01 -.299E+02   -.341E-01 0.205E-01 0.661E-02
   0.105E+01 -.104E+01 0.166E+02   -.104E+01 0.104E+01 -.166E+02   0.213E-02 -.218E-02 -.273E-02
   0.908E+00 -.761E+00 0.159E+02   -.905E+00 0.760E+00 -.159E+02   -.959E-02 0.434E-02 0.409E-02
   0.227E+01 -.487E+01 0.321E+02   -.228E+01 0.488E+01 -.321E+02   0.348E-01 -.136E-01 0.138E-02
   0.128E+01 -.634E+01 0.250E+02   -.129E+01 0.635E+01 -.250E+02   0.896E-02 0.221E-02 -.189E-01
   -.364E+01 0.224E+01 0.183E+02   0.364E+01 -.224E+01 -.183E+02   0.735E-02 -.360E-02 0.281E-02
   -.497E+01 0.147E+01 0.198E+02   0.498E+01 -.148E+01 -.198E+02   -.461E-02 0.781E-02 -.962E-02
   -.647E+00 -.255E+00 0.153E+02   0.654E+00 0.252E+00 -.153E+02   -.317E-02 0.159E-02 0.163E-02
   0.300E+00 0.225E+01 0.159E+02   -.297E+00 -.225E+01 -.159E+02   -.509E-02 0.308E-02 0.970E-02
   -.964E+00 -.595E+01 0.214E+02   0.959E+00 0.596E+01 -.214E+02   0.965E-02 -.463E-02 0.134E-02
   -.511E+00 -.337E+01 0.172E+02   0.505E+00 0.337E+01 -.172E+02   0.284E-02 -.315E-02 -.127E-02
   0.550E+01 -.243E+01 0.228E+02   -.550E+01 0.243E+01 -.228E+02   0.140E-02 -.504E-02 -.239E-01
   0.367E+01 -.305E+01 0.200E+02   -.368E+01 0.305E+01 -.200E+02   -.654E-02 0.536E-02 -.826E-02
   -.109E+01 0.207E+01 0.346E+02   0.109E+01 -.207E+01 -.346E+02   -.138E-01 0.136E-01 0.174E-01
   -.148E+01 -.325E+01 0.340E+02   0.148E+01 0.326E+01 -.340E+02   0.144E-01 -.197E-01 0.397E-02
   0.193E+01 -.767E+00 0.167E+02   -.193E+01 0.765E+00 -.167E+02   0.166E-02 -.173E-02 -.648E-02
   0.439E+00 0.170E+01 0.167E+02   -.436E+00 -.170E+01 -.167E+02   -.788E-02 0.497E-02 0.302E-02
   -.638E+01 0.878E+00 0.254E+02   0.639E+01 -.885E+00 -.254E+02   0.521E-02 0.113E-01 -.391E-02
   -.611E+01 -.243E+01 0.241E+02   0.612E+01 0.243E+01 -.241E+02   -.149E-01 0.114E-01 0.391E-02
   0.217E+01 -.436E+01 0.206E+02   -.218E+01 0.436E+01 -.206E+02   0.787E-02 0.125E-02 -.120E-01
   0.189E+00 -.184E+01 0.175E+02   -.193E+00 0.184E+01 -.175E+02   -.337E-02 0.274E-02 -.578E-02
   -.451E+01 -.471E+01 0.273E+02   0.451E+01 0.471E+01 -.273E+02   -.167E-01 -.107E-01 -.434E-02
   -.306E+01 -.567E+01 0.220E+02   0.307E+01 0.568E+01 -.220E+02   0.935E-03 -.586E-02 0.633E-02
   0.253E+00 0.101E+01 0.158E+02   -.256E+00 -.101E+01 -.158E+02   0.760E-02 -.579E-02 0.577E-02
   0.656E+00 0.988E+00 0.165E+02   -.660E+00 -.986E+00 -.165E+02   -.130E-02 0.364E-02 -.336E-02
   -.255E+01 0.404E+00 0.174E+02   0.255E+01 -.406E+00 -.174E+02   0.390E-02 -.169E-02 0.295E-02
   -.226E+01 -.955E+00 0.171E+02   0.226E+01 0.954E+00 -.171E+02   -.682E-02 0.379E-02 0.183E-02
   -.438E+01 -.228E+01 0.188E+02   0.439E+01 0.228E+01 -.188E+02   -.568E-02 0.183E-02 0.340E-02
   -.278E+01 -.222E+01 0.169E+02   0.278E+01 0.222E+01 -.169E+02   -.671E-02 0.161E-02 0.102E-01
   -.254E+01 -.327E+01 0.177E+02   0.254E+01 0.327E+01 -.177E+02   -.521E-02 -.948E-03 0.694E-02
   -.385E+00 -.841E+00 0.160E+02   0.386E+00 0.842E+00 -.160E+02   0.260E-02 -.219E-03 0.860E-02
   0.953E+00 0.237E+01 0.164E+02   -.953E+00 -.237E+01 -.164E+02   -.458E-02 0.382E-02 0.842E-02
   0.295E+01 0.461E+01 0.192E+02   -.295E+01 -.461E+01 -.192E+02   0.193E-02 0.137E-02 0.108E-01
   0.266E+00 0.401E+01 0.174E+02   -.259E+00 -.401E+01 -.174E+02   -.321E-02 0.376E-02 0.147E-02
   -.731E-01 0.630E+01 0.219E+02   0.796E-01 -.631E+01 -.219E+02   -.125E-01 0.578E-02 0.630E-02
   -.756E+00 0.145E+01 0.173E+02   0.758E+00 -.146E+01 -.173E+02   0.308E-02 -.276E-02 -.200E-02
   -.294E+01 0.363E+01 0.194E+02   0.295E+01 -.363E+01 -.194E+02   -.921E-02 0.200E-02 -.614E-02
   -.651E+00 -.168E+01 0.166E+02   0.648E+00 0.168E+01 -.166E+02   0.888E-02 -.222E-02 0.402E-02
   -.152E+01 0.576E+00 0.159E+02   0.152E+01 -.575E+00 -.159E+02   -.170E-02 0.288E-02 -.562E-02
   0.158E+00 -.105E+01 0.159E+02   -.160E+00 0.105E+01 -.159E+02   0.604E-02 -.385E-02 0.636E-02
   0.166E+01 0.119E+01 0.160E+02   -.167E+01 -.119E+01 -.160E+02   0.292E-02 0.113E-02 0.336E-02
   0.208E-01 0.103E-02 -.258E+03   -.241E-01 0.221E-02 0.258E+03   -.312E-02 0.199E-02 -.296E-02
   -.228E+03 0.155E+03 -.399E+03   0.279E+03 -.190E+03 0.402E+03   -.523E+02 0.356E+02 -.351E+01
   0.228E+03 -.155E+03 -.379E+03   -.279E+03 0.190E+03 0.376E+03   0.523E+02 -.356E+02 0.316E+01
 -----------------------------------------------------------------------------------------------
   -.615E-02 0.130E-01 0.357E+00   0.000E+00 0.284E-13 0.455E-12   0.580E-02 -.135E-01 -.346E+00
 
 
 POSITION                                       TOTAL-FORCE (eV/Angst)
 -----------------------------------------------------------------------------------
     11.98348      0.00342      0.01417         0.003129     -0.001533     -0.001595
     -0.34154      1.42665      0.01100        -0.001928     -0.000104     -0.003616
      2.12355      0.00315      0.01249        -0.001911      0.009056     -0.007083
      2.12326      1.42653      0.00641         0.012098      0.000295     -0.007678
     10.75099      2.13819      0.01213         0.000622     -0.005342     -0.000224
     -1.57382      3.56123      0.01110        -0.008633      0.004798     -0.001642
      0.89078      2.13854      0.00548         0.008091     -0.018173      0.003258
      0.89099      3.56147      0.00181        -0.013376     -0.001758      0.013831
      4.58864      0.00346      0.01135         0.004331     -0.017149     -0.003846
      4.58894      1.42623      0.00646        -0.021316      0.011916      0.015908
      9.51854      4.27281      0.01369         0.007297     -0.003145      0.000033
     -2.80632      5.69591      0.01434        -0.006763      0.003266      0.000676
      2.12300      4.27302      0.00000         0.022907     -0.003717      0.023542
      2.12335      5.69594      0.00581        -0.001348      0.010161     -0.002197
      7.05344      0.00333      0.01399         0.009030     -0.005416     -0.000739
      7.05353      1.42635      0.01368        -0.001441      0.004687     -0.004198
      8.28610      6.40752      0.01601         0.003581     -0.001307     -0.001094
     -4.03885      7.83070      0.01636        -0.002278      0.001036     -0.000533
      3.35586      6.40753      0.01007         0.004626      0.000784     -0.001433
      3.35599      7.83072      0.01320        -0.003313      0.000663     -0.000783
     -0.34146      4.27290      0.00723        -0.002046     -0.000951     -0.004304
     -0.34138      5.69591      0.00946        -0.009041      0.006012     -0.001237
      3.35624      2.13791      0.00222        -0.013073      0.010959      0.019440
      3.35573      3.56155      0.00139         0.013322     -0.014845      0.011295
     -1.57395      6.40758      0.01311         0.006162     -0.004069     -0.000637
     -1.57385      7.83068      0.01438        -0.004947      0.003961     -0.000273
      5.82093      2.13784      0.01033         0.017219      0.004500     -0.003207
      5.82114      3.56097      0.01156        -0.005119      0.007820     -0.004195
      0.89092      6.40755      0.00907         0.004188      0.002101     -0.002161
      0.89106      7.83068      0.01235        -0.007050      0.003789      0.000144
      4.58871      4.27293      0.00850        -0.011766     -0.005359     -0.011049
      4.58852      5.69606      0.01149         0.002358     -0.000172     -0.004385
      9.51845      0.00337      0.01490         0.004834     -0.004864     -0.000073
      9.51855      1.42644      0.01438        -0.005345      0.005748     -0.000531
      8.28593      2.13803      0.01453         0.006633     -0.003735      0.000162
      8.28613      3.56115      0.01464        -0.004375      0.001912     -0.000219
      7.05356      4.27269      0.01457         0.003568     -0.000848     -0.001109
      7.05362      5.69588      0.01553        -0.002397      0.001341     -0.000453
      5.82112      6.40755      0.01489        -0.002705      0.002227     -0.000418
      5.82102      7.83073      0.01579         0.002966      0.000450     -0.000640
      7.05363      8.54227      0.01631        -0.004666      0.001094      0.000758
     -5.27149      9.96549      0.01495        -0.000299     -0.002500     -0.002794
     -2.80638      8.54234      0.01558         0.003544     -0.001978     -0.001587
     -2.80627      9.96553      0.01362        -0.006030     -0.000259     -0.004630
     -0.34149      8.54239      0.01378         0.005911     -0.004851      0.000056
     -0.34138      9.96550      0.01354        -0.005597      0.000347     -0.001581
      2.12343      8.54232      0.01336         0.005744     -0.001759      0.000787
      2.12354      9.96544      0.01469        -0.005588      0.004382     -0.002175
      4.58846      8.54235      0.01505         0.003637     -0.002861      0.000755
      4.58853      9.96550      0.01517        -0.003170      0.003564     -0.000068
      3.04930      2.68154      5.29732        -0.006375      0.005230      0.035816
      4.02070      2.02068      5.36174        -1.424273      0.968617     -0.111708
      2.07767      3.34267      5.23786         1.430371     -0.974021      0.069635
 -----------------------------------------------------------------------------------
    total drift:                               -0.000354     -0.000492      0.010756


--------------------------------------------------------------------------------------------------------



  FREE ENERGIE OF THE ION-ELECTRON SYSTEM (eV)
  ---------------------------------------------------
  free  energy   TOTEN  =      -523.31556077 eV

  energy  without entropy=     -523.31556077  energy(sigma->0) =     -523.31556077
 


--------------------------------------------------------------------------------------------------------


    POTLOK:  cpu time    1.4358: real time    1.4454


--------------------------------------------------------------------------------------------------------


 writing wavefunctions
     LOOP+:  cpu time  638.6713: real time  644.1204
    4ORBIT:  cpu time    0.0000: real time    0.0000

 total amount of memory used by VASP MPI-rank0   556209. kBytes
=======================================================================

   base      :      30000. kBytes
   nonl-proj :     184518. kBytes
   fftplans  :      31725. kBytes
   grid      :     282516. kBytes
   one-center:        162. kBytes
   wavefun   :      27288. kBytes
 
  
  
 General timing and accounting informations for this job:
 ========================================================
  
                  Total CPU time used (sec):      675.611
                            User time (sec):      654.020
                          System time (sec):       21.591
                         Elapsed time (sec):      682.446
  
                   Maximum memory used (kb):     1032548.
                   Average memory used (kb):          N/A
  
                          Minor page faults:       182650
                          Major page faults:          108
                 Voluntary context switches:         3524
