 vasp.6.2.1 16May21 (build Nov 06 2021 14:46:37) complex                        
  
 executed on             LinuxIFC date 2025.04.06  13:46:39
 running on  112 total cores
 distrk:  each k-point on   56 cores,    2 groups
 distr:  one band on NCORE=   1 cores,   56 groups


--------------------------------------------------------------------------------------------------------


 INCAR:
   ALGO = Conjugate
   KPAR = 2
   NCORE = 32
   ISMEAR = 0
   SIGMA = 0.01
   PREC = Accurate
   EDIFF = 1E-7
   ENCUT = 1000
   ISIF = 0
   METAGGA = R2SCAN
   LASPH = .TRUE.
   SYMPREC = 1E-7

 POTCAR:    PAW_PBE C_h 06Feb2004                 
 POTCAR:    PAW_PBE O_h 06Feb2004                 
 -----------------------------------------------------------------------------
|                                                                             |
|           W    W    AA    RRRRR   N    N  II  N    N   GGGG   !!!           |
|           W    W   A  A   R    R  NN   N  II  NN   N  G    G  !!!           |
|           W    W  A    A  R    R  N N  N  II  N N  N  G       !!!           |
|           W WW W  AAAAAA  RRRRR   N  N N  II  N  N N  G  GGG   !            |
|           WW  WW  A    A  R   R   N   NN  II  N   NN  G    G                |
|           W    W  A    A  R    R  N    N  II  N    N   GGGG   !!!           |
|                                                                             |
|     The value NCORE = 32 specified in the INCAR file was overwritten,       |
|     because it was not compatible with the 56 processes available:          |
|     NCORE = 1                                                               |
|     was used instead, please check that this makes sense for your           |
|     machine.                                                                |
|                                                                             |
 -----------------------------------------------------------------------------

 -----------------------------------------------------------------------------
|                                                                             |
|           W    W    AA    RRRRR   N    N  II  N    N   GGGG   !!!           |
|           W    W   A  A   R    R  NN   N  II  NN   N  G    G  !!!           |
|           W    W  A    A  R    R  N N  N  II  N N  N  G       !!!           |
|           W WW W  AAAAAA  RRRRR   N  N N  II  N  N N  G  GGG   !            |
|           WW  WW  A    A  R   R   N   NN  II  N   NN  G    G                |
|           W    W  A    A  R    R  N    N  II  N    N   GGGG   !!!           |
|                                                                             |
|     For optimal performance we recommend to set                             |
|       NCORE = 2 up to number-of-cores-per-socket                            |
|     NCORE specifies how many cores store one orbital (NPAR=cpu/NCORE).      |
|     This setting can greatly improve the performance of VASP for DFT.       |
|     The default, NCORE=1 might be grossly inefficient on modern             |
|     multi-core architectures or massively parallel machines. Do your        |
|     own testing! More info at https://www.vasp.at/wiki/index.php/NCORE      |
|     Unfortunately you need to use the default for GW and RPA                |
|     calculations (for HF NCORE is supported but not extensively tested      |
|     yet).                                                                   |
|                                                                             |
 -----------------------------------------------------------------------------

 POTCAR:    PAW_PBE C_h 06Feb2004                 
   VRHFIN =C: s2p2                                                                                  
   LEXCH  = PE                                                                                      
   EATOM  =   147.1560 eV,   10.8157 Ry                                                             
                                                                                                    
   TITEL  = PAW_PBE C_h 06Feb2004                                                                   
   LULTRA =        F    use ultrasoft PP ?                                                          
   IUNSCR =        1    unscreen: 0-lin 1-nonlin 2-no                                               
   RPACOR =    0.800    partial core radius                                                         
   POMASS =   12.011; ZVAL   =    4.000    mass and valenz                                          
   RCORE  =    1.100    outmost cutoff radius                                                       
   RWIGS  =    1.630; RWIGS  =    0.863    wigner-seitz radius (au A)                               
   ENMAX  =  700.000; ENMIN  =  500.000 eV                                                          
   ICORE  =        2    local potential                                                             
   LCOR   =        T    correct aug charges                                                         
   LPAW   =        T    paw PP                                                                      
   EAUG   =  946.768                                                                                
   DEXC   =    0.000                                                                                
   RMAX   =    1.128    core radius for proj-oper                                                   
   RAUG   =    1.300    factor for augmentation sphere                                              
   RDEP   =    1.162    radius for radial grids                                                     
   RDEPT  =    1.088    core radius for aug-charge                                                  
                                                                                                    
   Atomic configuration                                                                             
    4 entries                                                                                       
     n  l   j            E        occ.                                                              
     1  0  0.50      -273.3789   2.0000                                                             
     2  0  0.50       -13.7508   2.0000                                                             
     2  1  0.50        -5.2854   2.0000                                                             
     3  2  1.50        -5.4423   0.0000                                                             
   Description                                                                                      
     l       E           TYP  RCUT    TYP  RCUT                                                     
     0    -13.7508458     23  1.100                                                                 
     0     -8.2022199     23  1.100                                                                 
     1     -5.2854383     23  1.100                                                                 
     1      1.1560700     23  1.100                                                                 
     2     -5.4423304      7  1.100                                                                 
  local pseudopotential read in
  partial core-charges read in
  partial kinetic energy density read in
  atomic valenz-charges read in
  non local Contribution for L=           0  read in
    real space projection operators read in
  non local Contribution for L=           0  read in
    real space projection operators read in
  non local Contribution for L=           1  read in
    real space projection operators read in
  non local Contribution for L=           1  read in
    real space projection operators read in
    PAW grid and wavefunctions read in
 
   number of l-projection  operators is LMAX  =           4
   number of lm-projection operators is LMMAX =           8
 
 POTCAR:    PAW_PBE O_h 06Feb2004                 
   VRHFIN =O: s2p4                                                                                  
   LEXCH  = PE                                                                                      
   EATOM  =   432.3788 eV,   31.7789 Ry                                                             
                                                                                                    
   TITEL  = PAW_PBE O_h 06Feb2004                                                                   
   LULTRA =        F    use ultrasoft PP ?                                                          
   IUNSCR =        1    unscreen: 0-lin 1-nonlin 2-no                                               
   RPACOR =    0.800    partial core radius                                                         
   POMASS =   16.000; ZVAL   =    6.000    mass and valenz                                          
   RCORE  =    1.100    outmost cutoff radius                                                       
   RWIGS  =    1.400; RWIGS  =    0.741    wigner-seitz radius (au A)                               
   ENMAX  =  700.000; ENMIN  =  500.000 eV                                                          
   ICORE  =        2    local potential                                                             
   LCOR   =        T    correct aug charges                                                         
   LPAW   =        T    paw PP                                                                      
   EAUG   =  888.804                                                                                
   DEXC   =    0.000                                                                                
   RMAX   =    1.128    core radius for proj-oper                                                   
   RAUG   =    1.300    factor for augmentation sphere                                              
   RDEP   =    1.125    radius for radial grids                                                     
   RDEPT  =    1.088    core radius for aug-charge                                                  
                                                                                                    
   Atomic configuration                                                                             
    4 entries                                                                                       
     n  l   j            E        occ.                                                              
     1  0  0.50      -514.6923   2.0000                                                             
     2  0  0.50       -23.9615   2.0000                                                             
     2  1  0.50        -9.0305   4.0000                                                             
     3  2  1.50        -9.5241   0.0000                                                             
   Description                                                                                      
     l       E           TYP  RCUT    TYP  RCUT                                                     
     0    -23.9615319     23  1.100                                                                 
     0    -25.3221145     23  1.100                                                                 
     1     -9.0304911     23  1.100                                                                 
     1     -5.4802209     23  1.100                                                                 
     2     -9.5240782      7  1.100                                                                 
  local pseudopotential read in
  partial core-charges read in
  partial kinetic energy density read in
  atomic valenz-charges read in
  non local Contribution for L=           0  read in
    real space projection operators read in
  non local Contribution for L=           0  read in
    real space projection operators read in
  non local Contribution for L=           1  read in
    real space projection operators read in
  non local Contribution for L=           1  read in
    real space projection operators read in
    PAW grid and wavefunctions read in
 
   number of l-projection  operators is LMAX  =           4
   number of lm-projection operators is LMMAX =           8
 
 -----------------------------------------------------------------------------
|                                                                             |
|               ----> ADVICE to this user running VASP <----                  |
|                                                                             |
|     You have a (more or less) 'large supercell' and for larger cells it     |
|     might be more efficient to use real-space projection operators.         |
|     Therefore, try LREAL= Auto in the INCAR file.                           |
|     Mind: For very accurate calculation, you might also keep the            |
|     reciprocal projection scheme (i.e. LREAL=.FALSE.).                      |
|                                                                             |
 -----------------------------------------------------------------------------

  PAW_PBE C_h 06Feb2004                 :
 energy of atom  1       EATOM= -147.1560
 kinetic energy error for atom=    0.0031 (will be added to EATOM!!)
  PAW_PBE O_h 06Feb2004                 :
 energy of atom  2       EATOM= -432.3788
 kinetic energy error for atom=    0.0171 (will be added to EATOM!!)
 
 
 POSCAR:  C  O
  positions in cartesian coordinates
  No initial velocities read in

 METAGGA = R2SCA    LMAXTAU =  6    LMIXTAU =  F

 exchange correlation table for  LEXCH =        8
   RHO(1)=    0.500       N(1)  =     2000
   RHO(2)=  100.500       N(2)  =     4000
 


--------------------------------------------------------------------------------------------------------


 ion  position               nearest neighbor table
   1  0.972  0.000  0.001-  50 1.42   2 1.42  42 1.42
   2  0.039  0.134  0.001-   5 1.42   7 1.42   1 1.42
   3  0.172  0.000  0.001-  42 1.42  44 1.42   4 1.42
   4  0.239  0.134  0.000-   7 1.42   3 1.42  23 1.42
   5  0.972  0.200  0.001-   6 1.42   2 1.42  34 1.42
   6  0.039  0.334  0.001-   5 1.42  21 1.42  11 1.42
   7  0.172  0.200  0.000-   8 1.42   2 1.42   4 1.42
   8  0.239  0.334  0.000-  13 1.42   7 1.42  21 1.42
   9  0.372  0.000  0.001-  10 1.42  44 1.42  46 1.42
  10  0.439  0.134  0.000-  27 1.42   9 1.42  23 1.42
  11  0.972  0.400  0.001-  12 1.42  36 1.42   6 1.42
  12  0.039  0.534  0.001-  25 1.42  11 1.42  17 1.42
  13  0.372  0.400  0.000-   8 1.42  14 1.42  24 1.42
  14  0.439  0.534  0.000-  13 1.42  29 1.42  19 1.42
  15  0.572  0.000  0.001-  46 1.42  16 1.42  48 1.42
  16  0.639  0.134  0.001-  15 1.42  35 1.42  27 1.42
  17  0.972  0.600  0.001-  38 1.42  18 1.42  12 1.42
  18  0.039  0.734  0.001-  43 1.42  41 1.42  17 1.42
  19  0.572  0.600  0.001-  14 1.42  20 1.42  32 1.42
  20  0.639  0.734  0.001-  49 1.42  19 1.42  47 1.42
  21  0.172  0.400  0.000-  22 1.42   8 1.42   6 1.42
  22  0.239  0.534  0.000-  21 1.42  29 1.42  25 1.42
  23  0.372  0.200  0.000-  10 1.42   4 1.42  24 1.42
  24  0.439  0.334  0.000-  13 1.42  31 1.42  23 1.42
  25  0.172  0.600  0.001-  26 1.42  12 1.42  22 1.42
  26  0.239  0.734  0.001-  25 1.42  45 1.42  43 1.42
  27  0.572  0.200  0.001-  10 1.42  28 1.42  16 1.42
  28  0.639  0.334  0.001-  27 1.42  37 1.42  31 1.42
  29  0.372  0.600  0.000-  22 1.42  14 1.42  30 1.42
  30  0.439  0.734  0.001-  47 1.42  29 1.42  45 1.42
  31  0.572  0.400  0.000-  32 1.42  28 1.42  24 1.42
  32  0.639  0.534  0.001-  31 1.42  39 1.42  19 1.42
  33  0.772  0.000  0.001-  34 1.42  48 1.42  50 1.42
  34  0.839  0.134  0.001-  33 1.42   5 1.42  35 1.42
  35  0.772  0.200  0.001-  36 1.42  16 1.42  34 1.42
  36  0.839  0.334  0.001-  35 1.42  11 1.42  37 1.42
  37  0.772  0.400  0.001-  28 1.42  38 1.42  36 1.42
  38  0.839  0.534  0.001-  17 1.42  37 1.42  39 1.42
  39  0.772  0.600  0.001-  40 1.42  38 1.42  32 1.42
  40  0.839  0.734  0.001-  39 1.42  49 1.42  41 1.42
  41  0.972  0.800  0.001-  18 1.42  42 1.42  40 1.42
  42  0.039  0.934  0.001-   3 1.42  41 1.42   1 1.42
  43  0.172  0.800  0.001-  18 1.42  44 1.42  26 1.42
  44  0.239  0.934  0.001-   9 1.42  43 1.42   3 1.42
  45  0.372  0.800  0.001-  26 1.42  46 1.42  30 1.42
  46  0.439  0.934  0.001-  15 1.42  45 1.42   9 1.42
  47  0.572  0.800  0.001-  30 1.42  48 1.42  20 1.42
  48  0.639  0.934  0.001-  47 1.42  33 1.42  15 1.42
  49  0.772  0.800  0.001-  50 1.42  20 1.42  40 1.42
  50  0.839  0.934  0.001-  49 1.42   1 1.42  33 1.42
  51  0.373  0.251  0.375-  52 1.18  53 1.18
  52  0.421  0.189  0.378-  51 1.18
  53  0.325  0.313  0.372-  51 1.18
 
  LATTYP: Found a hexagonal cell.
 ALAT       =    12.3250000000
 C/A-ratio  =     1.6227180527
  
  Lattice vectors:
  
 A1 = (  12.3250000000,   0.0000000000,   0.0000000000)
 A2 = (  -6.1625000000,  10.6737631016,   0.0000000000)
 A3 = (   0.0000000000,   0.0000000000,  20.0000000000)


Analysis of symmetry for initial positions (statically):
=====================================================================
 Subroutine PRICEL returns:
 Original cell was already a primitive cell.
 

 Routine SETGRP: Setting up the symmetry group for a 
 hexagonal supercell.


 Subroutine GETGRP returns: Found  1 space group operations
 (whereof  1 operations were pure point group operations)
 out of a pool of 24 trial point group operations.


The static configuration has the point symmetry C_1 .


Analysis of symmetry for dynamics (positions and initial velocities):
=====================================================================
 Subroutine PRICEL returns:
 Original cell was already a primitive cell.
 

 Routine SETGRP: Setting up the symmetry group for a 
 hexagonal supercell.


 Subroutine GETGRP returns: Found  1 space group operations
 (whereof  1 operations were pure point group operations)
 out of a pool of 24 trial point group operations.


The dynamic configuration has the point symmetry C_1 .


 Subroutine INISYM returns: Found  1 space group operations
 (whereof  1 operations are pure point group operations),
 and found     1 'primitive' translations


----------------------------------------------------------------------------------------

                                     Primitive cell                                     

  volume of cell :    2631.0826

  direct lattice vectors                    reciprocal lattice vectors
    12.325000000  0.000000000  0.000000000     0.081135903  0.046843835  0.000000000
    -6.162500000 10.673763102  0.000000000     0.000000000  0.093687670  0.000000000
     0.000000000  0.000000000 20.000000000     0.000000000  0.000000000  0.050000000

  length of vectors
    12.325000000 12.325000000 20.000000000     0.093687670  0.093687670  0.050000000

  position of ions in fractional coordinates (direct lattice)
     0.972450841  0.000320818  0.000708389
     0.039118382  0.133659505  0.000550216
     0.172443627  0.000295449  0.000624535
     0.239096278  0.133647917  0.000320585
     0.972452058  0.200322012  0.000606523
     0.039128360  0.333643771  0.000555187
     0.172451764  0.200354552  0.000273959
     0.239124359  0.333665720  0.000090325
     0.372465565  0.000324403  0.000567391
     0.439137473  0.133619939  0.000322923
     0.972449824  0.400309362  0.000684513
     0.039124981  0.533636789  0.000716763
     0.372416176  0.400329481  0.000000000
     0.439099602  0.533638981  0.000290518
     0.572443676  0.000312125  0.000699475
     0.639110207  0.133631751  0.000684093
     0.972452703  0.600305653  0.000800361
     0.039124495  0.733640359  0.000818141
     0.572433471  0.600306242  0.000503618
     0.639111888  0.733641879  0.000659881
     0.172454630  0.400318228  0.000361306
     0.239120185  0.533636548  0.000473136
     0.372459750  0.200295993  0.000111246
     0.439107096  0.333673419  0.000069702
     0.172452155  0.600311506  0.000655425
     0.239123371  0.733638574  0.000718912
     0.572431082  0.200289171  0.000516621
     0.639112773  0.333618630  0.000577970
     0.372439808  0.600308022  0.000453556
     0.439116090  0.733637858  0.000617737
     0.572469358  0.400320504  0.000424897
     0.639119408  0.533650873  0.000574513
     0.772445723  0.000315427  0.000745201
     0.839116277  0.133640203  0.000719132
     0.772440513  0.200307432  0.000726291
     0.839120241  0.333635728  0.000731834
     0.772446320  0.400298367  0.000728722
     0.839118980  0.533633964  0.000776376
     0.772456143  0.600308173  0.000744639
     0.839115033  0.733643180  0.000789390
     0.972455313  0.800305582  0.000815291
     0.039114714  0.933643289  0.000747563
     0.172457971  0.800312211  0.000779216
     0.239134551  0.933647193  0.000681063
     0.372451396  0.800316674  0.000689249
     0.439124489  0.933644769  0.000676788
     0.572441101  0.800310054  0.000668168
     0.639115067  0.933638985  0.000734556
     0.772445098  0.800313187  0.000752577
     0.839116614  0.933644338  0.000758538
     0.373021009  0.251226878  0.374576769
     0.420879805  0.189313152  0.377797862
     0.325156981  0.313167186  0.371604025

  ion indices of the primitive-cell ions
   primitive index   ion index
                 1           1
                 2           2
                 3           3
                 4           4
                 5           5
                 6           6
                 7           7
                 8           8
                 9           9
                10          10
                11          11
                12          12
                13          13
                14          14
                15          15
                16          16
                17          17
                18          18
                19          19
                20          20
                21          21
                22          22
                23          23
                24          24
                25          25
                26          26
                27          27
                28          28
                29          29
                30          30
                31          31
                32          32
                33          33
                34          34
                35          35
                36          36
                37          37
                38          38
                39          39
                40          40
                41          41
                42          42
                43          43
                44          44
                45          45
                46          46
                47          47
                48          48
                49          49
                50          50
                51          51
                52          52
                53          53

----------------------------------------------------------------------------------------

 
 
 KPOINTS: auto                                    

Automatic generation of k-mesh.
 Grid dimensions read from file:
 generate k-points for:    1    1    1

 Generating k-lattice:

  Cartesian coordinates                     Fractional coordinates (reciprocal lattice)
     0.081135903  0.046843835  0.000000000     1.000000000 -0.000000000  0.000000000
     0.000000000  0.093687670  0.000000000     0.000000000  1.000000000  0.000000000
     0.000000000  0.000000000  0.050000000     0.000000000  0.000000000  1.000000000

  Length of vectors
     0.093687670  0.093687670  0.050000000

  Shift w.r.t. Gamma in fractional coordinates (k-lattice)
     0.000000000  0.000000000  0.000000000

 
 Subroutine IBZKPT returns following result:
 ===========================================
 
 Found      1 irreducible k-points:
 
 Following reciprocal coordinates:
            Coordinates               Weight
  0.000000  0.000000  0.000000      1.000000
 
 Following cartesian coordinates:
            Coordinates               Weight
  0.000000  0.000000  0.000000      1.000000
 


--------------------------------------------------------------------------------------------------------




 Dimension of arrays:
   k-points           NKPTS =      1   k-points in BZ     NKDIM =      1   number of bands    NBANDS=    168
   number of dos      NEDOS =    301   number of ions     NIONS =     53
   non local maximal  LDIM  =      4   non local SUM 2l+1 LMDIM =      8
   total plane-waves  NPLWV = ******
   max r-space proj   IRMAX =      1   max aug-charges    IRDMAX=   9736
   dimension x,y,z NGX =   128 NGY =  128 NGZ =  210
   dimension x,y,z NGXF=   256 NGYF=  256 NGZF=  420
   support grid    NGXF=   256 NGYF=  256 NGZF=  420
   ions per type =              51   2
   NGX,Y,Z   is equivalent  to a cutoff of  17.27, 17.27, 17.46 a.u.
   NGXF,Y,Z  is equivalent  to a cutoff of  34.53, 34.53, 34.91 a.u.

 SYSTEM =  unknown system                          
 POSCAR =   C  O                                   

 Startparameter for this run:
   NWRITE =      2    write-flag & timer
   PREC   = accura    normal or accurate (medium, high low for compatibility)
   ISTART =      0    job   : 0-new  1-cont  2-samecut
   ICHARG =      2    charge: 1-file 2-atom 10-const
   ISPIN  =      1    spin polarized calculation?
   LNONCOLLINEAR =      F non collinear calculations
   LSORBIT =      F    spin-orbit coupling
   INIWAV =      1    electr: 0-lowe 1-rand  2-diag
   LASPH  =      T    aspherical Exc in radial PAW
 Electronic Relaxation 1
   ENCUT  = 1000.0 eV  73.50 Ry    8.57 a.u.  31.78 31.78 51.57*2*pi/ulx,y,z
   ENINI  = 1000.0     initial cutoff
   ENAUG  =  946.8 eV  augmentation charge cutoff
   NELM   =     60;   NELMIN=  2; NELMDL= -5     # of ELM steps 
   EDIFF  = 0.1E-06   stopping-criterion for ELM
   LREAL  =      F    real-space projection
   NLSPLINE    = F    spline interpolate recip. space projectors
   LCOMPAT=      F    compatible to vasp.4.4
   GGA_COMPAT  = T    GGA compatible to vasp.4.4-vasp.4.6
   LMAXPAW     = -100 max onsite density
   LMAXMIX     =    2 max onsite mixed and CHGCAR
   VOSKOWN=      0    Vosko Wilk Nusair interpolation
   ROPT   =    0.00000   0.00000
 Ionic relaxation
   EDIFFG = 0.1E-05   stopping-criterion for IOM
   NSW    =      0    number of steps for IOM
   NBLOCK =      1;   KBLOCK =      1    inner block; outer block 
   IBRION =     -1    ionic relax: 0-MD 1-quasi-New 2-CG
   NFREE  =      0    steps in history (QN), initial steepest desc. (CG)
   ISIF   =      0    stress and relaxation
   IWAVPR =     10    prediction:  0-non 1-charg 2-wave 3-comb
   ISYM   =      2    0-nonsym 1-usesym 2-fastsym
   LCORR  =      T    Harris-Foulkes like correction to forces

   POTIM  = 0.5000    time-step for ionic-motion
   TEIN   =    0.0    initial temperature
   TEBEG  =    0.0;   TEEND  =   0.0 temperature during run
   SMASS  =  -3.00    Nose mass-parameter (am)
   estimated Nose-frequenzy (Omega)   =  0.10E-29 period in steps = 0.13E+47 mass=  -0.347E-26a.u.
   SCALEE = 1.0000    scale energy and forces
   NPACO  =    256;   APACO  = 16.0  distance and # of slots for P.C.
   PSTRESS=    0.0 pullay stress

  Mass of Ions in am
   POMASS =  12.01 16.00
  Ionic Valenz
   ZVAL   =   4.00  6.00
  Atomic Wigner-Seitz radii
   RWIGS  =  -1.00 -1.00
  virtual crystal weights 
   VCA    =   1.00  1.00
   NELECT =     216.0000    total number of electrons
   NUPDOWN=      -1.0000    fix difference up-down

 DOS related values:
   EMIN   =  10.00;   EMAX   =-10.00  energy-range for DOS
   EFERMI =   0.00
   ISMEAR =     0;   SIGMA  =   0.01  broadening in eV -4-tet -1-fermi 0-gaus

 Electronic relaxation 2 (details)
   IALGO  =     58    algorithm
   LDIAG  =      T    sub-space diagonalisation (order eigenvalues)
   LSUBROT=      F    optimize rotation matrix (better conditioning)
   TURBO    =      0    0=normal 1=particle mesh
   IRESTART =      0    0=no restart 2=restart with 2 vectors
   NREBOOT  =      0    no. of reboots
   NMIN     =      0    reboot dimension
   EREF     =   0.00    reference energy to select bands
   IMIX   =      4    mixing-type and parameters
     AMIX     =   0.40;   BMIX     =  1.00
     AMIX_MAG =   1.60;   BMIX_MAG =  1.00
     AMIN     =   0.10
     WC   =   100.;   INIMIX=   1;  MIXPRE=   1;  MAXMIX= -45

 Intra band minimization:
   WEIMIN = 0.0000     energy-eigenvalue tresh-hold
   EBREAK =  0.15E-09  absolut break condition
   DEPER  =   0.30     relativ break condition  

   TIME   =   0.40     timestep for ELM

  volume/ion in A,a.u.               =      49.64       335.01
  Fermi-wavevector in a.u.,A,eV,Ry     =   0.711510  1.344560  6.887909  0.506247
  Thomas-Fermi vector in A             =   1.798641
 
 Write flags
   LWAVE        =      T    write WAVECAR
   LDOWNSAMPLE  =      F    k-point downsampling of WAVECAR
   LCHARG       =      T    write CHGCAR
   LVTOT        =      F    write LOCPOT, total local potential
   LVHAR        =      F    write LOCPOT, Hartree potential only
   LELF         =      F    write electronic localiz. function (ELF)
   LORBIT       =      0    0 simple, 1 ext, 2 COOP (PROOUT), +10 PAW based schemes


 Dipole corrections
   LMONO  =      F    monopole corrections only (constant potential shift)
   LDIPOL =      F    correct potential (dipole corrections)
   IDIPOL =      0    1-x, 2-y, 3-z, 4-all directions 
   EPSILON=  1.0000000 bulk dielectric constant

 Exchange correlation treatment:
   GGA     =    --    GGA type
   LEXCH   =     8    internal setting for exchange type
   VOSKOWN=      0    Vosko Wilk Nusair interpolation
   LHFCALC =     F    Hartree Fock is set to
   LHFONE  =     F    Hartree Fock one center treatment
   AEXX    =    0.0000 exact exchange contribution

 Linear response parameters
   LEPSILON=     F    determine dielectric tensor
   LRPA    =     F    only Hartree local field effects (RPA)
   LNABLA  =     F    use nabla operator in PAW spheres
   LVEL    =     F    velocity operator in full k-point grid
   LINTERFAST=   F  fast interpolation
   KINTER  =     0    interpolate to denser k-point grid
   CSHIFT  =0.1000    complex shift for real part using Kramers Kronig
   OMEGAMAX=  -1.0    maximum frequency
   DEG_THRESHOLD= 0.2000000E-02 threshold for treating states as degnerate
   RTIME   =   -0.100 relaxation time in fs
  (WPLASMAI=    0.000 imaginary part of plasma frequency in eV, 0.658/RTIME)
   DFIELD  = 0.0000000 0.0000000 0.0000000 field for delta impulse in time
 
 Orbital magnetization related:
   ORBITALMAG=     F  switch on orbital magnetization
   LCHIMAG   =     F  perturbation theory with respect to B field
   DQ        =  0.001000  dq finite difference perturbation B field
   LLRAUG    =     F  two centre corrections for induced B field



--------------------------------------------------------------------------------------------------------


 Static calculation
 charge density and potential will be updated during run
 non-spin polarized calculation
 Conjugate gradient for all bands (Freysoldt, et al. PRB 79, 241103 (2009))
 preconditioned conjugated gradient                                        
 perform sub-space diagonalisation
    before iterative eigenvector-optimisation
 modified Broyden-mixing scheme, WC =      100.0
 initial mixing is a Kerker type mixing with AMIX =  0.4000 and BMIX =      1.0000
 Hartree-type preconditioning will be used
 using additional bands           60
 reciprocal scheme for non local part
 use partial core corrections
 no Harris-corrections to forces 
 use gradient corrections 
 use of overlap-Matrix (Vanderbilt PP)
 Gauss-broadening in eV      SIGMA  =   0.01


--------------------------------------------------------------------------------------------------------


  energy-cutoff  :     1000.00
  volume of cell :     2631.08
      direct lattice vectors                 reciprocal lattice vectors
    12.325000000  0.000000000  0.000000000     0.081135903  0.046843835  0.000000000
    -6.162500000 10.673763102  0.000000000     0.000000000  0.093687670  0.000000000
     0.000000000  0.000000000 20.000000000     0.000000000  0.000000000  0.050000000

  length of vectors
    12.325000000 12.325000000 20.000000000     0.093687670  0.093687670  0.050000000


 
 k-points in units of 2pi/SCALE and weight: auto                                    
   0.00000000  0.00000000  0.00000000       1.000
 
 k-points in reciprocal lattice and weights: auto                                    
   0.00000000  0.00000000  0.00000000       1.000
 
 position of ions in fractional coordinates (direct lattice) 
   0.97245084  0.00032082  0.00070839
   0.03911838  0.13365950  0.00055022
   0.17244363  0.00029545  0.00062454
   0.23909628  0.13364792  0.00032058
   0.97245206  0.20032201  0.00060652
   0.03912836  0.33364377  0.00055519
   0.17245176  0.20035455  0.00027396
   0.23912436  0.33366572  0.00009033
   0.37246557  0.00032440  0.00056739
   0.43913747  0.13361994  0.00032292
   0.97244982  0.40030936  0.00068451
   0.03912498  0.53363679  0.00071676
   0.37241618  0.40032948  0.00000000
   0.43909960  0.53363898  0.00029052
   0.57244368  0.00031213  0.00069947
   0.63911021  0.13363175  0.00068409
   0.97245270  0.60030565  0.00080036
   0.03912449  0.73364036  0.00081814
   0.57243347  0.60030624  0.00050362
   0.63911189  0.73364188  0.00065988
   0.17245463  0.40031823  0.00036131
   0.23912018  0.53363655  0.00047314
   0.37245975  0.20029599  0.00011125
   0.43910710  0.33367342  0.00006970
   0.17245216  0.60031151  0.00065542
   0.23912337  0.73363857  0.00071891
   0.57243108  0.20028917  0.00051662
   0.63911277  0.33361863  0.00057797
   0.37243981  0.60030802  0.00045356
   0.43911609  0.73363786  0.00061774
   0.57246936  0.40032050  0.00042490
   0.63911941  0.53365087  0.00057451
   0.77244572  0.00031543  0.00074520
   0.83911628  0.13364020  0.00071913
   0.77244051  0.20030743  0.00072629
   0.83912024  0.33363573  0.00073183
   0.77244632  0.40029837  0.00072872
   0.83911898  0.53363396  0.00077638
   0.77245614  0.60030817  0.00074464
   0.83911503  0.73364318  0.00078939
   0.97245531  0.80030558  0.00081529
   0.03911471  0.93364329  0.00074756
   0.17245797  0.80031221  0.00077922
   0.23913455  0.93364719  0.00068106
   0.37245140  0.80031667  0.00068925
   0.43912449  0.93364477  0.00067679
   0.57244110  0.80031005  0.00066817
   0.63911507  0.93363899  0.00073456
   0.77244510  0.80031319  0.00075258
   0.83911661  0.93364434  0.00075854
   0.37302101  0.25122688  0.37457677
   0.42087980  0.18931315  0.37779786
   0.32515698  0.31316719  0.37160403
 
 position of ions in cartesian coordinates  (Angst):
  11.98347958  0.00342433  0.01416777
  -0.34154264  1.42664989  0.01100432
   2.12354700  0.00315355  0.01249070
   2.12325634  1.42652621  0.00641170
  10.75098721  2.13818970  0.01213047
  -1.57382270  3.56123457  0.01110375
   0.89078307  2.13853702  0.00547917
   0.89099273  3.56146885  0.00180651
   4.58863896  0.00346260  0.01134782
   4.58893648  1.42622757  0.00645846
   9.51853763  4.27280730  0.01369027
  -2.80632132  5.69591267  0.01433526
   2.12299894  4.27302204  0.00000000
   2.12335237  5.69593607  0.00581036
   7.05344483  0.00333155  0.01398950
   7.05352764  1.42635365  0.01368187
   8.28609598  6.40752033  0.01600723
  -4.03884931  7.83070339  0.01636283
   3.35585531  6.40752662  0.01007237
   3.35598594  7.83071962  0.01319763
  -0.34145776  4.27290193  0.00722612
  -0.34137895  5.69591010  0.00946273
   3.35624236  2.13791198  0.00222492
   3.35573251  3.56155103  0.00139405
  -1.57394684  6.40758280  0.01310850
  -1.57385216  7.83068434  0.01437823
   5.82093107  2.13783916  0.01033241
   5.82114012  3.56096622  0.01155939
   0.89092245  6.40754561  0.00907111
   0.89106251  7.83067670  0.01235474
   4.58870974  4.27292622  0.00849795
   4.58852320  5.69606300  0.01149026
   9.51844972  0.00336679  0.01490402
   9.51855036  1.42644387  0.01438264
   8.28593477  2.13803408  0.01452582
   8.28612680  3.56114872  0.01463668
   7.05356221  4.27268994  0.01457444
   7.05362213  5.69588251  0.01552751
   5.82112285  6.40754723  0.01489279
   5.82101669  7.83073350  0.01578780
   7.05362858  8.54227219  0.01630582
  -5.27148792  9.96548729  0.01495127
  -2.80637951  8.54234295  0.01558431
  -2.80626749  9.96552896  0.01362126
  -0.34148805  8.54239058  0.01378498
  -0.34137657  9.96550309  0.01353576
   2.12342586  8.54231992  0.01336337
   2.12354296  9.96544135  0.01469111
   4.58845581  8.54235337  0.01505154
   4.58852904  9.96549848  0.01517076
   3.04929830  2.68153618  7.49153538
   4.02070129  2.02068374  7.55595724
   2.07766701  3.34267235  7.43208051
 


--------------------------------------------------------------------------------------------------------


 k-point   1 :   0.0000 0.0000 0.0000  plane waves:  189031

 maximum and minimum number of plane-waves per node :    189031   189031

 maximum number of plane-waves:    189031
 maximum index in each direction: 
   IXMAX=   31   IYMAX=   31   IZMAX=   51
   IXMIN=  -31   IYMIN=  -31   IZMIN=  -51


 serial   3D FFT for wavefunctions
 parallel 3D FFT for charge:
    minimum data exchange during FFTs selected (reduces bandwidth)


 total amount of memory used by VASP MPI-rank0   556209. kBytes
=======================================================================

   base      :      30000. kBytes
   nonl-proj :     184518. kBytes
   fftplans  :      31725. kBytes
   grid      :     282516. kBytes
   one-center:        162. kBytes
   wavefun   :      27288. kBytes
 
     INWAV:  cpu time    0.0000: real time    0.0000
 Broyden mixing: mesh for mixing (old mesh)
   NGX = 63   NGY = 63   NGZ =103
  (NGX  =256   NGY  =256   NGZ  =420)
  gives a total of 408807 points

 initial charge density was supplied:
 charge density of overlapping atoms calculated
 number of electron     216.0000000 magnetization 
 keeping initial charge density in first step


--------------------------------------------------------------------------------------------------------


 Maximum index for augmentation-charges          459 (set IRDMAX)


--------------------------------------------------------------------------------------------------------


 First call to EWALD:  gamma=   0.128
 Maximum number of real-space cells 3x 3x 2
 Maximum number of reciprocal cells 3x 3x 4

    FEWALD:  cpu time    0.0037: real time    0.0037


--------------------------------------- Iteration      1(   1)  ---------------------------------------


    POTLOK:  cpu time    1.2741: real time    1.2837
    SETDIJ:  cpu time    0.2017: real time    0.2027
    TRIAL :  cpu time   21.8454: real time   22.0295
    CORREC:  cpu time    0.0008: real time    0.0008
    --------------------------------------------
      LOOP:  cpu time   23.3339: real time   23.5349

 eigenvalue-minimisations  :   336
 total energy-change (2. order) : 0.2406410E+04  (-0.1180723E+05)
 number of electron     216.0000000 magnetization 
 augmentation part      216.0000000 magnetization 

 Free energy of the ion-electron system (eV)
  ---------------------------------------------------
  alpha Z        PSCENC =        59.93625244
  Ewald energy   TEWEN  =     29907.56189182
  -Hartree energ DENC   =    -36083.01706340
  -exchange      EXHF   =         0.00000000
  -V(xc)+E(xc)   XCENC  =       605.05785950
  PAW double counting   =      6340.10990386    -6200.63067283
  entropy T*S    EENTRO =        -0.00000000
  eigenvalues    EBANDS =      -592.13220640
  atomic energy  EATOM  =      8369.52358910
  ---------------------------------------------------
  free energy    TOTEN  =      2406.40955409 eV

  energy without entropy =     2406.40955409  energy(sigma->0) =     2406.40955409


--------------------------------------------------------------------------------------------------------




--------------------------------------- Iteration      1(   2)  ---------------------------------------


    TRIAL :  cpu time   35.6568: real time   35.9355
    CORREC:  cpu time    0.0001: real time    0.0001
    --------------------------------------------
      LOOP:  cpu time   35.7491: real time   36.0300

 eigenvalue-minimisations  :   672
 total energy-change (2. order) :-0.2457703E+04  (-0.2348214E+04)
 number of electron     216.0000000 magnetization 
 augmentation part      216.0000000 magnetization 

 Free energy of the ion-electron system (eV)
  ---------------------------------------------------
  alpha Z        PSCENC =        59.93625244
  Ewald energy   TEWEN  =     29907.56189182
  -Hartree energ DENC   =    -36083.01706340
  -exchange      EXHF   =         0.00000000
  -V(xc)+E(xc)   XCENC  =       605.05785950
  PAW double counting   =      6340.10990386    -6200.63067283
  entropy T*S    EENTRO =        -0.00000000
  eigenvalues    EBANDS =     -3049.83513318
  atomic energy  EATOM  =      8369.52358910
  ---------------------------------------------------
  free energy    TOTEN  =       -51.29337269 eV

  energy without entropy =      -51.29337269  energy(sigma->0) =      -51.29337269


--------------------------------------------------------------------------------------------------------




--------------------------------------- Iteration      1(   3)  ---------------------------------------


    TRIAL :  cpu time   24.1118: real time   24.2983
    CORREC:  cpu time    0.0001: real time    0.0001
    --------------------------------------------
      LOOP:  cpu time   24.1366: real time   24.3534

 eigenvalue-minimisations  :   392
 total energy-change (2. order) :-0.5313762E+03  (-0.5285187E+03)
 number of electron     216.0000000 magnetization 
 augmentation part      216.0000000 magnetization 

 Free energy of the ion-electron system (eV)
  ---------------------------------------------------
  alpha Z        PSCENC =        59.93625244
  Ewald energy   TEWEN  =     29907.56189182
  -Hartree energ DENC   =    -36083.01706340
  -exchange      EXHF   =         0.00000000
  -V(xc)+E(xc)   XCENC  =       605.05785950
  PAW double counting   =      6340.10990386    -6200.63067283
  entropy T*S    EENTRO =        -0.00000000
  eigenvalues    EBANDS =     -3581.21133098
  atomic energy  EATOM  =      8369.52358910
  ---------------------------------------------------
  free energy    TOTEN  =      -582.66957049 eV

  energy without entropy =     -582.66957049  energy(sigma->0) =     -582.66957049


--------------------------------------------------------------------------------------------------------




--------------------------------------- Iteration      1(   4)  ---------------------------------------


    TRIAL :  cpu time   26.4091: real time   26.6313
    CORREC:  cpu time    0.0001: real time    0.0001
    --------------------------------------------
      LOOP:  cpu time   26.4357: real time   26.6890

 eigenvalue-minimisations  :   448
 total energy-change (2. order) :-0.2423828E+02  (-0.2409415E+02)
 number of electron     216.0000000 magnetization 
 augmentation part      216.0000000 magnetization 

 Free energy of the ion-electron system (eV)
  ---------------------------------------------------
  alpha Z        PSCENC =        59.93625244
  Ewald energy   TEWEN  =     29907.56189182
  -Hartree energ DENC   =    -36083.01706340
  -exchange      EXHF   =         0.00000000
  -V(xc)+E(xc)   XCENC  =       605.05785950
  PAW double counting   =      6340.10990386    -6200.63067283
  entropy T*S    EENTRO =        -0.00000000
  eigenvalues    EBANDS =     -3605.44960699
  atomic energy  EATOM  =      8369.52358910
  ---------------------------------------------------
  free energy    TOTEN  =      -606.90784650 eV

  energy without entropy =     -606.90784650  energy(sigma->0) =     -606.90784650


--------------------------------------------------------------------------------------------------------




--------------------------------------- Iteration      1(   5)  ---------------------------------------


    TRIAL :  cpu time   21.8223: real time   21.9860
    CORREC:  cpu time    0.0001: real time    0.0001
    CHARGE:  cpu time    2.2849: real time    2.3012
    --------------------------------------------
      LOOP:  cpu time   24.1771: real time   24.3594

 eigenvalue-minimisations  :   336
 total energy-change (2. order) :-0.8360239E+00  (-0.8356056E+00)
 number of electron     216.0000000 magnetization 
 augmentation part       -0.4462945 magnetization 

 Free energy of the ion-electron system (eV)
  ---------------------------------------------------
  alpha Z        PSCENC =        59.93625244
  Ewald energy   TEWEN  =     29907.56189182
  -Hartree energ DENC   =    -36083.01706340
  -exchange      EXHF   =         0.00000000
  -V(xc)+E(xc)   XCENC  =       605.05785950
  PAW double counting   =      6340.10990386    -6200.63067283
  entropy T*S    EENTRO =        -0.00000000
  eigenvalues    EBANDS =     -3606.28563087
  atomic energy  EATOM  =      8369.52358910
  ---------------------------------------------------
  free energy    TOTEN  =      -607.74387038 eV

  energy without entropy =     -607.74387038  energy(sigma->0) =     -607.74387038


--------------------------------------------------------------------------------------------------------




--------------------------------------- Iteration      1(   6)  ---------------------------------------


    POTLOK:  cpu time    1.2527: real time    1.2602
    SETDIJ:  cpu time    0.1981: real time    0.1988
    TRIAL :  cpu time   15.5551: real time   15.6687
    CORREC:  cpu time    6.8887: real time    6.9366
    CHARGE:  cpu time    2.2786: real time    2.2968
    --------------------------------------------
      LOOP:  cpu time   26.2508: real time   26.4411

 eigenvalue-minimisations  :     0
 total energy-change (2. order) : 0.9802521E+02  (-0.1125763E+02)
 number of electron     216.0000000 magnetization 
 augmentation part       -0.5085186 magnetization 

 Free energy of the ion-electron system (eV)
  ---------------------------------------------------
  alpha Z        PSCENC =        59.93625244
  Ewald energy   TEWEN  =     29907.56189182
  -Hartree energ DENC   =    -37397.90561384
  -exchange      EXHF   =         0.00000000
  -V(xc)+E(xc)   XCENC  =       676.79087715
  PAW double counting   =    119234.49321820  -119094.90841729
  entropy T*S    EENTRO =        -0.00000000
  eigenvalues    EBANDS =     -2265.21045329
  atomic energy  EATOM  =      8369.52358910
  ---------------------------------------------------
  free energy    TOTEN  =      -509.71865572 eV

  energy without entropy =     -509.71865572  energy(sigma->0) =     -509.71865572


--------------------------------------------------------------------------------------------------------




--------------------------------------- Iteration      1(   7)  ---------------------------------------


    POTLOK:  cpu time    1.2504: real time    1.2576
    SETDIJ:  cpu time    0.1930: real time    0.1937
    TRIAL :  cpu time   15.5582: real time   15.6798
    CORREC:  cpu time    6.8863: real time    6.9332
    CHARGE:  cpu time    2.2832: real time    2.2994
    --------------------------------------------
      LOOP:  cpu time   26.2038: real time   26.3991

 eigenvalue-minimisations  :     0
 total energy-change (2. order) :-0.1127176E+02  (-0.1494268E+01)
 number of electron     216.0000000 magnetization 
 augmentation part       -0.5422884 magnetization 

 Free energy of the ion-electron system (eV)
  ---------------------------------------------------
  alpha Z        PSCENC =        59.93625244
  Ewald energy   TEWEN  =     29907.56189182
  -Hartree energ DENC   =    -36998.40888176
  -exchange      EXHF   =         0.00000000
  -V(xc)+E(xc)   XCENC  =       659.21020434
  PAW double counting   =    138585.67655439  -138444.35284894
  entropy T*S    EENTRO =        -0.00000000
  eigenvalues    EBANDS =     -2660.13717772
  atomic energy  EATOM  =      8369.52358910
  ---------------------------------------------------
  free energy    TOTEN  =      -520.99041632 eV

  energy without entropy =     -520.99041632  energy(sigma->0) =     -520.99041632


--------------------------------------------------------------------------------------------------------




--------------------------------------- Iteration      1(   8)  ---------------------------------------


    POTLOK:  cpu time    1.2508: real time    1.2582
    SETDIJ:  cpu time    0.1863: real time    0.1877
    TRIAL :  cpu time   15.5685: real time   15.6946
    CORREC:  cpu time    6.8874: real time    6.9403
    CHARGE:  cpu time    2.2781: real time    2.2945
    --------------------------------------------
      LOOP:  cpu time   26.2148: real time   26.4225

 eigenvalue-minimisations  :     0
 total energy-change (2. order) :-0.1493837E+01  (-0.4932906E+00)
 number of electron     216.0000000 magnetization 
 augmentation part       -0.5436009 magnetization 

 Free energy of the ion-electron system (eV)
  ---------------------------------------------------
  alpha Z        PSCENC =        59.93625244
  Ewald energy   TEWEN  =     29907.56189182
  -Hartree energ DENC   =    -36967.54134980
  -exchange      EXHF   =         0.00000000
  -V(xc)+E(xc)   XCENC  =       658.10163556
  PAW double counting   =    148219.25613012  -148077.80629905
  entropy T*S    EENTRO =        -0.00000000
  eigenvalues    EBANDS =     -2691.51610333
  atomic energy  EATOM  =      8369.52358910
  ---------------------------------------------------
  free energy    TOTEN  =      -522.48425313 eV

  energy without entropy =     -522.48425313  energy(sigma->0) =     -522.48425313


--------------------------------------------------------------------------------------------------------




--------------------------------------- Iteration      1(   9)  ---------------------------------------


    POTLOK:  cpu time    1.2465: real time    1.2539
    SETDIJ:  cpu time    0.1938: real time    0.1944
    TRIAL :  cpu time   15.5634: real time   15.6817
    CORREC:  cpu time    6.8939: real time    6.9477
    CHARGE:  cpu time    2.2858: real time    2.3032
    --------------------------------------------
      LOOP:  cpu time   26.2247: real time   26.4472

 eigenvalue-minimisations  :     0
 total energy-change (2. order) :-0.4928934E+00  (-0.2005195E+00)
 number of electron     216.0000000 magnetization 
 augmentation part       -0.5403500 magnetization 

 Free energy of the ion-electron system (eV)
  ---------------------------------------------------
  alpha Z        PSCENC =        59.93625244
  Ewald energy   TEWEN  =     29907.56189182
  -Hartree energ DENC   =    -36973.63479832
  -exchange      EXHF   =         0.00000000
  -V(xc)+E(xc)   XCENC  =       658.03189106
  PAW double counting   =    156382.52437238  -156241.00080305
  entropy T*S    EENTRO =        -0.00000000
  eigenvalues    EBANDS =     -2685.91954199
  atomic energy  EATOM  =      8369.52358910
  ---------------------------------------------------
  free energy    TOTEN  =      -522.97714655 eV

  energy without entropy =     -522.97714655  energy(sigma->0) =     -522.97714655


--------------------------------------------------------------------------------------------------------




--------------------------------------- Iteration      1(  10)  ---------------------------------------


    POTLOK:  cpu time    1.2502: real time    1.2572
    SETDIJ:  cpu time    0.1953: real time    0.1959
    TRIAL :  cpu time   15.5595: real time   15.6829
    CORREC:  cpu time    6.8788: real time    6.9269
    CHARGE:  cpu time    2.2821: real time    2.2978
    --------------------------------------------
      LOOP:  cpu time   26.1862: real time   26.3913

 eigenvalue-minimisations  :     0
 total energy-change (2. order) :-0.2001843E+00  (-0.8789957E-01)
 number of electron     216.0000000 magnetization 
 augmentation part       -0.5345451 magnetization 

 Free energy of the ion-electron system (eV)
  ---------------------------------------------------
  alpha Z        PSCENC =        59.93625244
  Ewald energy   TEWEN  =     29907.56189182
  -Hartree energ DENC   =    -36972.73587035
  -exchange      EXHF   =         0.00000000
  -V(xc)+E(xc)   XCENC  =       657.92671173
  PAW double counting   =    160378.01998251  -160236.44486373
  entropy T*S    EENTRO =        -0.00000000
  eigenvalues    EBANDS =     -2686.96502436
  atomic energy  EATOM  =      8369.52358910
  ---------------------------------------------------
  free energy    TOTEN  =      -523.17733083 eV

  energy without entropy =     -523.17733083  energy(sigma->0) =     -523.17733083


--------------------------------------------------------------------------------------------------------




--------------------------------------- Iteration      1(  11)  ---------------------------------------


    POTLOK:  cpu time    1.2542: real time    1.2613
    SETDIJ:  cpu time    0.1877: real time    0.1883
    TRIAL :  cpu time   15.5585: real time   15.6786
    CORREC:  cpu time    6.8848: real time    6.9306
    CHARGE:  cpu time    2.2864: real time    2.3025
    --------------------------------------------
      LOOP:  cpu time   26.1921: real time   26.3867

 eigenvalue-minimisations  :     0
 total energy-change (2. order) :-0.8770546E-01  (-0.3366082E-01)
 number of electron     216.0000000 magnetization 
 augmentation part       -0.5306449 magnetization 

 Free energy of the ion-electron system (eV)
  ---------------------------------------------------
  alpha Z        PSCENC =        59.93625244
  Ewald energy   TEWEN  =     29907.56189182
  -Hartree energ DENC   =    -36966.86573837
  -exchange      EXHF   =         0.00000000
  -V(xc)+E(xc)   XCENC  =       657.85919255
  PAW double counting   =    160942.87759189  -160801.32413082
  entropy T*S    EENTRO =        -0.00000000
  eigenvalues    EBANDS =     -2692.83368491
  atomic energy  EATOM  =      8369.52358910
  ---------------------------------------------------
  free energy    TOTEN  =      -523.26503630 eV

  energy without entropy =     -523.26503630  energy(sigma->0) =     -523.26503630


--------------------------------------------------------------------------------------------------------




--------------------------------------- Iteration      1(  12)  ---------------------------------------


    POTLOK:  cpu time    1.2594: real time    1.2677
    SETDIJ:  cpu time    0.1790: real time    0.1796
    TRIAL :  cpu time   15.5596: real time   15.6925
    CORREC:  cpu time    6.9051: real time    6.9532
    CHARGE:  cpu time    2.2834: real time    2.2997
    --------------------------------------------
      LOOP:  cpu time   26.2519: real time   26.4602

 eigenvalue-minimisations  :     0
 total energy-change (2. order) :-0.3361115E-01  (-0.1034008E-01)
 number of electron     216.0000000 magnetization 
 augmentation part       -0.5303560 magnetization 

 Free energy of the ion-electron system (eV)
  ---------------------------------------------------
  alpha Z        PSCENC =        59.93625244
  Ewald energy   TEWEN  =     29907.56189182
  -Hartree energ DENC   =    -36962.33009419
  -exchange      EXHF   =         0.00000000
  -V(xc)+E(xc)   XCENC  =       657.78769231
  PAW double counting   =    160261.55129795  -160120.02507885
  entropy T*S    EENTRO =        -0.00000000
  eigenvalues    EBANDS =     -2697.30419803
  atomic energy  EATOM  =      8369.52358910
  ---------------------------------------------------
  free energy    TOTEN  =      -523.29864744 eV

  energy without entropy =     -523.29864744  energy(sigma->0) =     -523.29864744


--------------------------------------------------------------------------------------------------------




--------------------------------------- Iteration      1(  13)  ---------------------------------------


    POTLOK:  cpu time    1.2506: real time    1.2580
    SETDIJ:  cpu time    0.1928: real time    0.1935
    TRIAL :  cpu time   15.5587: real time   15.6726
    CORREC:  cpu time    6.9080: real time    6.9574
    CHARGE:  cpu time    2.2868: real time    2.3034
    --------------------------------------------
      LOOP:  cpu time   26.2277: real time   26.4317

 eigenvalue-minimisations  :     0
 total energy-change (2. order) :-0.1032022E-01  (-0.2880145E-02)
 number of electron     216.0000000 magnetization 
 augmentation part       -0.5308966 magnetization 

 Free energy of the ion-electron system (eV)
  ---------------------------------------------------
  alpha Z        PSCENC =        59.93625244
  Ewald energy   TEWEN  =     29907.56189182
  -Hartree energ DENC   =    -36961.13055533
  -exchange      EXHF   =         0.00000000
  -V(xc)+E(xc)   XCENC  =       657.74201785
  PAW double counting   =    159510.37083367  -159368.84950317
  entropy T*S    EENTRO =        -0.00000000
  eigenvalues    EBANDS =     -2698.46349404
  atomic energy  EATOM  =      8369.52358910
  ---------------------------------------------------
  free energy    TOTEN  =      -523.30896766 eV

  energy without entropy =     -523.30896766  energy(sigma->0) =     -523.30896766


--------------------------------------------------------------------------------------------------------




--------------------------------------- Iteration      1(  14)  ---------------------------------------


    POTLOK:  cpu time    1.2483: real time    1.2558
    SETDIJ:  cpu time    0.1929: real time    0.1935
    TRIAL :  cpu time   15.5586: real time   15.6842
    CORREC:  cpu time    6.8712: real time    6.9279
    CHARGE:  cpu time    2.2922: real time    2.3135
    --------------------------------------------
      LOOP:  cpu time   26.2129: real time   26.4266

 eigenvalue-minimisations  :     0
 total energy-change (2. order) :-0.2868685E-02  (-0.8049608E-03)
 number of electron     216.0000000 magnetization 
 augmentation part       -0.5312093 magnetization 

 Free energy of the ion-electron system (eV)
  ---------------------------------------------------
  alpha Z        PSCENC =        59.93625244
  Ewald energy   TEWEN  =     29907.56189182
  -Hartree energ DENC   =    -36961.26970998
  -exchange      EXHF   =         0.00000000
  -V(xc)+E(xc)   XCENC  =       657.73024136
  PAW double counting   =    159072.22202398  -158930.69918359
  entropy T*S    EENTRO =        -0.00000000
  eigenvalues    EBANDS =     -2698.31694148
  atomic energy  EATOM  =      8369.52358910
  ---------------------------------------------------
  free energy    TOTEN  =      -523.31183635 eV

  energy without entropy =     -523.31183635  energy(sigma->0) =     -523.31183635


--------------------------------------------------------------------------------------------------------




--------------------------------------- Iteration      1(  15)  ---------------------------------------


    POTLOK:  cpu time    1.2483: real time    1.2558
    SETDIJ:  cpu time    0.2011: real time    0.2017
    TRIAL :  cpu time   15.5649: real time   15.6788
    CORREC:  cpu time    6.8808: real time    6.9288
    CHARGE:  cpu time    2.2863: real time    2.3041
    --------------------------------------------
      LOOP:  cpu time   26.2506: real time   26.4402

 eigenvalue-minimisations  :     0
 total energy-change (2. order) :-0.7997159E-03  (-0.2496380E-03)
 number of electron     216.0000000 magnetization 
 augmentation part       -0.5314335 magnetization 

 Free energy of the ion-electron system (eV)
  ---------------------------------------------------
  alpha Z        PSCENC =        59.93625244
  Ewald energy   TEWEN  =     29907.56189182
  -Hartree energ DENC   =    -36961.20889513
  -exchange      EXHF   =         0.00000000
  -V(xc)+E(xc)   XCENC  =       657.72420305
  PAW double counting   =    158858.56602396  -158717.04184737
  entropy T*S    EENTRO =        -0.00000000
  eigenvalues    EBANDS =     -2698.37385395
  atomic energy  EATOM  =      8369.52358910
  ---------------------------------------------------
  free energy    TOTEN  =      -523.31263606 eV

  energy without entropy =     -523.31263606  energy(sigma->0) =     -523.31263606


--------------------------------------------------------------------------------------------------------




--------------------------------------- Iteration      1(  16)  ---------------------------------------


    POTLOK:  cpu time    1.2454: real time    1.2570
    SETDIJ:  cpu time    0.1942: real time    0.1948
    TRIAL :  cpu time   15.5579: real time   15.6731
    CORREC:  cpu time    6.8803: real time    6.9318
    CHARGE:  cpu time    2.2796: real time    2.2955
    --------------------------------------------
      LOOP:  cpu time   26.1801: real time   26.3815

 eigenvalue-minimisations  :     0
 total energy-change (2. order) :-0.2471380E-03  (-0.9254166E-04)
 number of electron     216.0000000 magnetization 
 augmentation part       -0.5315385 magnetization 

 Free energy of the ion-electron system (eV)
  ---------------------------------------------------
  alpha Z        PSCENC =        59.93625244
  Ewald energy   TEWEN  =     29907.56189182
  -Hartree energ DENC   =    -36961.13369677
  -exchange      EXHF   =         0.00000000
  -V(xc)+E(xc)   XCENC  =       657.71900426
  PAW double counting   =    158736.27023302  -158594.74436945
  entropy T*S    EENTRO =        -0.00000000
  eigenvalues    EBANDS =     -2698.44578763
  atomic energy  EATOM  =      8369.52358910
  ---------------------------------------------------
  free energy    TOTEN  =      -523.31288320 eV

  energy without entropy =     -523.31288320  energy(sigma->0) =     -523.31288320


--------------------------------------------------------------------------------------------------------




--------------------------------------- Iteration      1(  17)  ---------------------------------------


    POTLOK:  cpu time    1.2489: real time    1.2560
    SETDIJ:  cpu time    0.1961: real time    0.1967
    TRIAL :  cpu time   15.5457: real time   15.6644
    CORREC:  cpu time    6.8926: real time    6.9388
    CHARGE:  cpu time    2.2869: real time    2.3026
    --------------------------------------------
      LOOP:  cpu time   26.2053: real time   26.3981

 eigenvalue-minimisations  :     0
 total energy-change (2. order) :-0.9114828E-04  (-0.3869710E-04)
 number of electron     216.0000000 magnetization 
 augmentation part       -0.5315798 magnetization 

 Free energy of the ion-electron system (eV)
  ---------------------------------------------------
  alpha Z        PSCENC =        59.93625244
  Ewald energy   TEWEN  =     29907.56189182
  -Hartree energ DENC   =    -36961.30449278
  -exchange      EXHF   =         0.00000000
  -V(xc)+E(xc)   XCENC  =       657.72595913
  PAW double counting   =    158661.70182001  -158520.17577893
  entropy T*S    EENTRO =        -0.00000000
  eigenvalues    EBANDS =     -2698.28221515
  atomic energy  EATOM  =      8369.52358910
  ---------------------------------------------------
  free energy    TOTEN  =      -523.31297435 eV

  energy without entropy =     -523.31297435  energy(sigma->0) =     -523.31297435


--------------------------------------------------------------------------------------------------------




--------------------------------------- Iteration      1(  18)  ---------------------------------------


    POTLOK:  cpu time    1.2472: real time    1.2541
    SETDIJ:  cpu time    0.1969: real time    0.1975
    TRIAL :  cpu time   15.5663: real time   15.6859
    CORREC:  cpu time    6.8922: real time    6.9393
    CHARGE:  cpu time    2.2734: real time    2.2920
    --------------------------------------------
      LOOP:  cpu time   26.2114: real time   26.4531

 eigenvalue-minimisations  :     0
 total energy-change (2. order) :-0.3896019E-04  (-0.1446311E-04)
 number of electron     216.0000000 magnetization 
 augmentation part       -0.5315975 magnetization 

 Free energy of the ion-electron system (eV)
  ---------------------------------------------------
  alpha Z        PSCENC =        59.93625244
  Ewald energy   TEWEN  =     29907.56189182
  -Hartree energ DENC   =    -36961.37665652
  -exchange      EXHF   =         0.00000000
  -V(xc)+E(xc)   XCENC  =       657.72880634
  PAW double counting   =    158637.01512158  -158495.48883335
  entropy T*S    EENTRO =        -0.00000000
  eigenvalues    EBANDS =     -2698.21318471
  atomic energy  EATOM  =      8369.52358910
  ---------------------------------------------------
  free energy    TOTEN  =      -523.31301331 eV

  energy without entropy =     -523.31301331  energy(sigma->0) =     -523.31301331


--------------------------------------------------------------------------------------------------------




--------------------------------------- Iteration      1(  19)  ---------------------------------------


    POTLOK:  cpu time    1.2499: real time    1.2577
    SETDIJ:  cpu time    0.1905: real time    0.1912
    TRIAL :  cpu time   15.5430: real time   15.6815
    CORREC:  cpu time    6.8885: real time    6.9395
    CHARGE:  cpu time    2.2847: real time    2.3014
    --------------------------------------------
      LOOP:  cpu time   26.2341: real time   26.4549

 eigenvalue-minimisations  :     0
 total energy-change (2. order) :-0.1495512E-04  (-0.5343409E-05)
 number of electron     216.0000000 magnetization 
 augmentation part       -0.5315903 magnetization 

 Free energy of the ion-electron system (eV)
  ---------------------------------------------------
  alpha Z        PSCENC =        59.93625244
  Ewald energy   TEWEN  =     29907.56189182
  -Hartree energ DENC   =    -36961.36808090
  -exchange      EXHF   =         0.00000000
  -V(xc)+E(xc)   XCENC  =       657.72818257
  PAW double counting   =    158646.00064777  -158504.47407273
  entropy T*S    EENTRO =        -0.00000000
  eigenvalues    EBANDS =     -2698.22143834
  atomic energy  EATOM  =      8369.52358910
  ---------------------------------------------------
  free energy    TOTEN  =      -523.31302826 eV

  energy without entropy =     -523.31302826  energy(sigma->0) =     -523.31302826


--------------------------------------------------------------------------------------------------------




--------------------------------------- Iteration      1(  20)  ---------------------------------------


    POTLOK:  cpu time    1.2507: real time    1.2585
    SETDIJ:  cpu time    0.1912: real time    0.1918
    TRIAL :  cpu time   15.5518: real time   15.6890
    CORREC:  cpu time    6.8860: real time    6.9342
    CHARGE:  cpu time    2.2778: real time    2.2947
    --------------------------------------------
      LOOP:  cpu time   26.1977: real time   26.4095

 eigenvalue-minimisations  :     0
 total energy-change (2. order) :-0.5529961E-05  (-0.1924291E-05)
 number of electron     216.0000000 magnetization 
 augmentation part       -0.5315805 magnetization 

 Free energy of the ion-electron system (eV)
  ---------------------------------------------------
  alpha Z        PSCENC =        59.93625244
  Ewald energy   TEWEN  =     29907.56189182
  -Hartree energ DENC   =    -36961.39008089
  -exchange      EXHF   =         0.00000000
  -V(xc)+E(xc)   XCENC  =       657.72910616
  PAW double counting   =    158661.79959276  -158520.27310953
  entropy T*S    EENTRO =        -0.00000000
  eigenvalues    EBANDS =     -2698.20027565
  atomic energy  EATOM  =      8369.52358910
  ---------------------------------------------------
  free energy    TOTEN  =      -523.31303379 eV

  energy without entropy =     -523.31303379  energy(sigma->0) =     -523.31303379


--------------------------------------------------------------------------------------------------------




--------------------------------------- Iteration      1(  21)  ---------------------------------------


    POTLOK:  cpu time    1.2490: real time    1.2568
    SETDIJ:  cpu time    0.1954: real time    0.1960
    TRIAL :  cpu time   15.5527: real time   15.6726
    CORREC:  cpu time    6.8621: real time    6.9514
    CHARGE:  cpu time    2.2877: real time    2.3041
    --------------------------------------------
      LOOP:  cpu time   26.1630: real time   26.4172

 eigenvalue-minimisations  :     0
 total energy-change (2. order) :-0.1982116E-05  (-0.7013570E-06)
 number of electron     216.0000000 magnetization 
 augmentation part       -0.5315667 magnetization 

 Free energy of the ion-electron system (eV)
  ---------------------------------------------------
  alpha Z        PSCENC =        59.93625244
  Ewald energy   TEWEN  =     29907.56189182
  -Hartree energ DENC   =    -36961.39556546
  -exchange      EXHF   =         0.00000000
  -V(xc)+E(xc)   XCENC  =       657.72913043
  PAW double counting   =    158673.82335284  -158532.29692860
  entropy T*S    EENTRO =        -0.00000000
  eigenvalues    EBANDS =     -2698.19475836
  atomic energy  EATOM  =      8369.52358910
  ---------------------------------------------------
  free energy    TOTEN  =      -523.31303578 eV

  energy without entropy =     -523.31303578  energy(sigma->0) =     -523.31303578


--------------------------------------------------------------------------------------------------------




--------------------------------------- Iteration      1(  22)  ---------------------------------------


    POTLOK:  cpu time    1.2539: real time    1.2611
    SETDIJ:  cpu time    0.1906: real time    0.1912
    TRIAL :  cpu time   15.5538: real time   15.6718
    CORREC:  cpu time    7.0918: real time    7.1467
    CHARGE:  cpu time    2.2808: real time    2.2982
    --------------------------------------------
      LOOP:  cpu time   26.4108: real time   26.6127

 eigenvalue-minimisations  :     0
 total energy-change (2. order) :-0.7142953E-06  (-0.3069869E-06)
 number of electron     216.0000000 magnetization 
 augmentation part       -0.5315561 magnetization 

 Free energy of the ion-electron system (eV)
  ---------------------------------------------------
  alpha Z        PSCENC =        59.93625244
  Ewald energy   TEWEN  =     29907.56189182
  -Hartree energ DENC   =    -36961.38995258
  -exchange      EXHF   =         0.00000000
  -V(xc)+E(xc)   XCENC  =       657.72889879
  PAW double counting   =    158680.30176874  -158538.77542204
  entropy T*S    EENTRO =        -0.00000000
  eigenvalues    EBANDS =     -2698.20006277
  atomic energy  EATOM  =      8369.52358910
  ---------------------------------------------------
  free energy    TOTEN  =      -523.31303649 eV

  energy without entropy =     -523.31303649  energy(sigma->0) =     -523.31303649


--------------------------------------------------------------------------------------------------------




--------------------------------------- Iteration      1(  23)  ---------------------------------------


    POTLOK:  cpu time    1.2521: real time    1.2591
    SETDIJ:  cpu time    0.1894: real time    0.1900
    TRIAL :  cpu time   15.5369: real time   15.6842
    CORREC:  cpu time    6.8900: real time    6.9357
    CHARGE:  cpu time    2.2796: real time    2.2974
    --------------------------------------------
      LOOP:  cpu time   26.1779: real time   26.4037

 eigenvalue-minimisations  :     0
 total energy-change (2. order) :-0.2883025E-06  (-0.1880769E-06)
 number of electron     216.0000000 magnetization 
 augmentation part       -0.5315545 magnetization 

 Free energy of the ion-electron system (eV)
  ---------------------------------------------------
  alpha Z        PSCENC =        59.93625244
  Ewald energy   TEWEN  =     29907.56189182
  -Hartree energ DENC   =    -36961.38650234
  -exchange      EXHF   =         0.00000000
  -V(xc)+E(xc)   XCENC  =       657.72883058
  PAW double counting   =    158683.50609988  -158541.97982241
  entropy T*S    EENTRO =        -0.00000000
  eigenvalues    EBANDS =     -2698.20337586
  atomic energy  EATOM  =      8369.52358910
  ---------------------------------------------------
  free energy    TOTEN  =      -523.31303678 eV

  energy without entropy =     -523.31303678  energy(sigma->0) =     -523.31303678


--------------------------------------------------------------------------------------------------------




--------------------------------------- Iteration      1(  24)  ---------------------------------------


    POTLOK:  cpu time    1.2527: real time    1.2603
    SETDIJ:  cpu time    0.1926: real time    0.1932
    TRIAL :  cpu time   15.5564: real time   15.6752
    CORREC:  cpu time    6.8926: real time    6.9431
    CHARGE:  cpu time    2.2829: real time    2.2995
    --------------------------------------------
      LOOP:  cpu time   26.2106: real time   26.4250

 eigenvalue-minimisations  :     0
 total energy-change (2. order) :-0.8111238E-07  (-0.1213147E-06)
 number of electron     216.0000000 magnetization 
 augmentation part       -0.5315558 magnetization 

 Free energy of the ion-electron system (eV)
  ---------------------------------------------------
  alpha Z        PSCENC =        59.93625244
  Ewald energy   TEWEN  =     29907.56189182
  -Hartree energ DENC   =    -36961.38104000
  -exchange      EXHF   =         0.00000000
  -V(xc)+E(xc)   XCENC  =       657.72863160
  PAW double counting   =    158685.60392498  -158544.07765782
  entropy T*S    EENTRO =        -0.00000000
  eigenvalues    EBANDS =     -2698.20862899
  atomic energy  EATOM  =      8369.52358910
  ---------------------------------------------------
  free energy    TOTEN  =      -523.31303686 eV

  energy without entropy =     -523.31303686  energy(sigma->0) =     -523.31303686


--------------------------------------------------------------------------------------------------------




--------------------------------------- Iteration      1(  25)  ---------------------------------------


    POTLOK:  cpu time    1.2503: real time    1.2576
    SETDIJ:  cpu time    0.1911: real time    0.1918
    TRIAL :  cpu time   15.5398: real time   15.6820
    CORREC:  cpu time    6.8870: real time    6.9446
    EDDIAG:  cpu time    3.2128: real time    3.2378
    CHARGE:  cpu time    2.2739: real time    2.2920
    --------------------------------------------
      LOOP:  cpu time   29.3920: real time   29.6443

 eigenvalue-minimisations  :     0
 total energy-change (2. order) :-0.5585025E-07  (-0.6810132E-07)
 number of electron     216.0000000 magnetization 
 augmentation part       -0.5315603 magnetization 

 Free energy of the ion-electron system (eV)
  ---------------------------------------------------
  alpha Z        PSCENC =        59.93625244
  Ewald energy   TEWEN  =     29907.56189182
  -Hartree energ DENC   =    -36961.38307481
  -exchange      EXHF   =         0.00000000
  -V(xc)+E(xc)   XCENC  =       657.72882455
  PAW double counting   =    158685.04747916  -158543.52123354
  entropy T*S    EENTRO =        -0.00000000
  eigenvalues    EBANDS =     -2698.20676564
  atomic energy  EATOM  =      8369.52358910
  ---------------------------------------------------
  free energy    TOTEN  =      -523.31303692 eV

  energy without entropy =     -523.31303692  energy(sigma->0) =     -523.31303692


--------------------------------------------------------------------------------------------------------


  average scaling for gradient   0.8803


 average (electrostatic) potential at core
  the test charge radii are     0.5770  0.5955
  (the norm of the test charge is              1.0000)
       1 -87.6321       2 -87.6315       3 -87.6322       4 -87.6328       5 -87.6308
       6 -87.6306       7 -87.6321       8 -87.6309       9 -87.6312      10 -87.6316
      11 -87.6306      12 -87.6306      13 -87.6316      14 -87.6311      15 -87.6305
      16 -87.6308      17 -87.6312      18 -87.6317      19 -87.6319      20 -87.6313
      21 -87.6305      22 -87.6303      23 -87.6330      24 -87.6330      25 -87.6304
      26 -87.6306      27 -87.6312      28 -87.6322      29 -87.6305      30 -87.6304
      31 -87.6323      32 -87.6318      33 -87.6308      34 -87.6307      35 -87.6307
      36 -87.6309      37 -87.6314      38 -87.6318      39 -87.6317      40 -87.6317
      41 -87.6317      42 -87.6318      43 -87.6313      44 -87.6320      45 -87.6305
      46 -87.6307      47 -87.6306      48 -87.6306      49 -87.6317      50 -87.6314
      51 -91.5280      52-123.9114      53-123.9105
 
 
 
 E-fermi :  -4.0787     XC(G=0):  -2.3560     alpha+bet : -2.1113

 Fermi energy:        -4.0787496745

 k-point     1 :       0.0000    0.0000    0.0000
  band No.  band energies     occupation 
      1     -28.8080      2.00000
      2     -27.6993      2.00000
      3     -23.3380      2.00000
      4     -22.3457      2.00000
      5     -22.3444      2.00000
      6     -22.3441      2.00000
      7     -22.3439      2.00000
      8     -22.3437      2.00000
      9     -22.3433      2.00000
     10     -20.3986      2.00000
     11     -20.3985      2.00000
     12     -20.3982      2.00000
     13     -20.3975      2.00000
     14     -20.3970      2.00000
     15     -20.3968      2.00000
     16     -19.4558      2.00000
     17     -19.4556      2.00000
     18     -19.4552      2.00000
     19     -19.4549      2.00000
     20     -19.4542      2.00000
     21     -19.4539      2.00000
     22     -17.2152      2.00000
     23     -17.2148      2.00000
     24     -17.2141      2.00000
     25     -17.2139      2.00000
     26     -17.2134      2.00000
     27     -17.2133      2.00000
     28     -16.0469      2.00000
     29     -16.0468      2.00000
     30     -16.0458      2.00000
     31     -16.0456      2.00000
     32     -16.0452      2.00000
     33     -16.0451      2.00000
     34     -14.6400      2.00000
     35     -14.6398      2.00000
     36     -14.6392      2.00000
     37     -14.6390      2.00000
     38     -14.6389      2.00000
     39     -14.6387      2.00000
     40     -12.8685      2.00000
     41     -12.1481      2.00000
     42     -12.1478      2.00000
     43     -12.1473      2.00000
     44     -12.1473      2.00000
     45     -12.1461      2.00000
     46     -12.1458      2.00000
     47     -11.9405      2.00000
     48     -11.9404      2.00000
     49     -11.9397      2.00000
     50     -11.9396      2.00000
     51     -11.9395      2.00000
     52     -11.9393      2.00000
     53     -11.5232      2.00000
     54     -11.3282      2.00000
     55     -11.3280      2.00000
     56     -10.6314      2.00000
     57     -10.4780      2.00000
     58     -10.4779      2.00000
     59     -10.4762      2.00000
     60     -10.4759      2.00000
     61     -10.4757      2.00000
     62     -10.4756      2.00000
     63      -9.4548      2.00000
     64      -9.4540      2.00000
     65      -9.4538      2.00000
     66      -9.4531      2.00000
     67      -9.4530      2.00000
     68      -9.4529      2.00000
     69      -9.1462      2.00000
     70      -9.1454      2.00000
     71      -9.1449      2.00000
     72      -9.1448      2.00000
     73      -9.1444      2.00000
     74      -9.1442      2.00000
     75      -9.1398      2.00000
     76      -9.1396      2.00000
     77      -9.1388      2.00000
     78      -9.1385      2.00000
     79      -9.1384      2.00000
     80      -9.1377      2.00000
     81      -7.6906      2.00000
     82      -7.6905      2.00000
     83      -7.4014      2.00000
     84      -7.3996      2.00000
     85      -7.3995      2.00000
     86      -7.3991      2.00000
     87      -7.3981      2.00000
     88      -7.3980      2.00000
     89      -7.2068      2.00000
     90      -7.2064      2.00000
     91      -7.2063      2.00000
     92      -7.2058      2.00000
     93      -7.2055      2.00000
     94      -7.2053      2.00000
     95      -6.2613      2.00000
     96      -6.2612      2.00000
     97      -6.2608      2.00000
     98      -6.2606      2.00000
     99      -6.2601      2.00000
    100      -6.2599      2.00000
    101      -5.8293      2.00000
    102      -5.8270      2.00000
    103      -4.1618      2.00000
    104      -4.1614      2.00000
    105      -4.1609      2.00000
    106      -4.1608      2.00000
    107      -4.1601      2.00000
    108      -4.1600      2.00000
    109      -1.1680      0.00000
    110      -1.1677      0.00000
    111      -1.1674      0.00000
    112      -1.1672      0.00000
    113      -1.1665      0.00000
    114      -1.1662      0.00000
    115       0.8239      0.00000
    116       0.8242      0.00000
    117       0.8247      0.00000
    118       0.8247      0.00000
    119       0.8249      0.00000
    120       0.8264      0.00000
    121       1.0363      0.00000
    122       1.3690      0.00000
    123       1.5308      0.00000
    124       1.5314      0.00000
    125       1.8329      0.00000
    126       2.2633      0.00000
    127       2.3676      0.00000
    128       2.3830      0.00000
    129       2.3901      0.00000
    130       2.3947      0.00000
    131       2.3965      0.00000
    132       2.4941      0.00000
    133       2.6913      0.00000
    134       2.6914      0.00000
    135       2.6921      0.00000
    136       2.6922      0.00000
    137       2.6928      0.00000
    138       2.6943      0.00000
    139       2.9928      0.00000
    140       3.0048      0.00000
    141       3.0749      0.00000
    142       3.1034      0.00000
    143       3.1202      0.00000
    144       3.1293      0.00000
    145       3.1371      0.00000
    146       3.1379      0.00000
    147       3.2249      0.00000
    148       3.2499      0.00000
    149       3.2681      0.00000
    150       3.3178      0.00000
    151       3.3290      0.00000
    152       4.4265      0.00000
    153       4.7450      0.00000
    154       4.8470      0.00000
    155       4.8883      0.00000
    156       4.9495      0.00000
    157       5.0503      0.00000
    158       5.1177      0.00000
    159       5.1955      0.00000
    160       5.2031      0.00000
    161       5.2145      0.00000
    162       5.2162      0.00000
    163       5.2186      0.00000
    164       5.2194      0.00000
    165       5.2202      0.00000
    166       5.2227      0.00000
    167       5.2414      0.00000
    168       5.2574      0.00000


--------------------------------------------------------------------------------------------------------


 soft charge-density along one line, spin component           1
         0         1         2         3         4         5         6         7         8         9
 total charge-density along one line
 
 pseudopotential strength for first ion, spin component:           1
 12.626  21.244   0.000   0.000   0.000   0.000   0.000   0.000
 21.244  35.745   0.000   0.000   0.000   0.000   0.000   0.000
  0.000   0.000  -3.230  -0.000   0.000  -5.784   0.000   0.000
  0.000   0.000  -0.000  -3.230  -0.000   0.000  -5.784  -0.000
  0.000   0.000   0.000  -0.000  -3.230   0.000  -0.000  -5.784
  0.000   0.000  -5.784   0.000   0.000 -10.336   0.000   0.000
  0.000   0.000   0.000  -5.784  -0.000   0.000 -10.335  -0.000
  0.000   0.000   0.000  -0.000  -5.784   0.000  -0.000 -10.336
 total augmentation occupancy for first ion, spin component:           1
 10.264  -3.894  -0.000  -0.002  -0.000   0.000   0.001   0.000
 -3.894   1.507   0.000   0.001   0.000  -0.000  -0.000  -0.000
 -0.000   0.000   8.469  -0.009   0.000  -3.024   0.003  -0.000
 -0.002   0.001  -0.009   4.016  -0.000   0.003  -1.207   0.000
 -0.000   0.000   0.000  -0.000   8.468  -0.000   0.000  -3.024
  0.000  -0.000  -3.024   0.003  -0.000   1.093  -0.001   0.000
  0.001  -0.000   0.003  -1.207   0.000  -0.001   0.368  -0.000
  0.000  -0.000  -0.000   0.000  -3.024   0.000  -0.000   1.093


------------------------ aborting loop because EDIFF is reached ----------------------------------------


    FORLOC:  cpu time    0.1042: real time    0.1050
    FORNL :  cpu time    2.8787: real time    2.9087
    FORCOR:  cpu time    1.2605: real time    1.2682
    OFIELD:  cpu time    0.0022: real time    0.0022

 VOLUME and BASIS-vectors are now :
 -----------------------------------------------------------------------------
  energy-cutoff  :     1000.00
  volume of cell :     2631.08
      direct lattice vectors                 reciprocal lattice vectors
    12.325000000  0.000000000  0.000000000     0.081135903  0.046843835  0.000000000
    -6.162500000 10.673763102  0.000000000     0.000000000  0.093687670  0.000000000
     0.000000000  0.000000000 20.000000000     0.000000000  0.000000000  0.050000000

  length of vectors
    12.325000000 12.325000000 20.000000000     0.093687670  0.093687670  0.050000000


 FORCES acting on ions:
    Electron-Ion                     Ewald-Force                    Non-Local-Force
 -----------------------------------------------------------------------------------------------
   0.114E+01 0.995E+00 0.101E+02   -.114E+01 -.996E+00 -.102E+02   0.505E-02 -.795E-03 0.643E-02
   0.157E+01 0.816E+00 0.114E+02   -.157E+01 -.812E+00 -.114E+02   0.363E-02 -.344E-02 -.585E-02
   0.634E+00 0.173E+01 0.116E+02   -.636E+00 -.173E+01 -.116E+02   -.404E-03 0.119E-01 -.985E-03
   0.798E+00 0.116E+01 0.143E+02   -.796E+00 -.115E+01 -.143E+02   0.120E-01 0.643E-03 -.158E-01
   0.124E+01 0.311E+00 0.106E+02   -.124E+01 -.312E+00 -.106E+02   -.115E-03 -.562E-02 0.360E-02
   0.126E+01 -.277E+00 0.107E+02   -.127E+01 0.278E+00 -.107E+02   -.629E-02 0.312E-02 -.274E-02
   0.154E+01 0.614E+00 0.141E+02   -.154E+01 -.614E+00 -.141E+02   0.125E-01 -.196E-01 -.659E-02
   0.154E+01 -.518E+00 0.153E+02   -.154E+01 0.521E+00 -.153E+02   -.643E-02 -.593E-02 -.600E-02
   -.767E+00 0.163E+01 0.120E+02   0.771E+00 -.164E+01 -.120E+02   -.680E-03 -.126E-01 -.514E-02
   -.103E+01 0.886E+00 0.145E+02   0.103E+01 -.888E+00 -.145E+02   -.265E-01 0.152E-01 0.291E-02
   0.326E+00 -.342E+00 0.967E+01   -.323E+00 0.342E+00 -.967E+01   0.375E-02 -.266E-02 0.404E-03
   0.311E+00 -.261E+00 0.940E+01   -.310E+00 0.261E+00 -.941E+01   -.708E-02 0.343E-02 0.658E-02
   0.514E+00 -.123E+01 0.162E+02   -.516E+00 0.123E+01 -.162E+02   0.272E-01 -.816E-02 -.213E-02
   0.320E+00 -.180E+01 0.131E+02   -.325E+00 0.181E+01 -.131E+02   0.420E-02 0.634E-02 -.168E-01
   -.115E+01 0.694E+00 0.101E+02   0.115E+01 -.695E+00 -.101E+02   0.727E-02 -.396E-02 0.784E-02
   -.148E+01 0.425E+00 0.105E+02   0.148E+01 -.426E+00 -.105E+02   -.186E-02 0.541E-02 -.465E-02
   -.212E+00 -.850E-01 0.898E+01   0.216E+00 0.830E-01 -.898E+01   -.476E-03 0.658E-03 0.233E-02
   0.943E-01 0.725E+00 0.913E+01   -.934E-01 -.726E+00 -.914E+01   -.325E-02 0.183E-02 0.976E-02
   -.296E+00 -.174E+01 0.115E+02   0.295E+00 0.174E+01 -.115E+02   0.627E-02 -.186E-02 0.421E-03
   -.174E+00 -.106E+01 0.988E+01   0.171E+00 0.106E+01 -.988E+01   0.397E-03 -.111E-02 -.565E-03
   0.161E+01 -.697E+00 0.123E+02   -.161E+01 0.698E+00 -.123E+02   -.145E-02 -.247E-02 -.171E-01
   0.114E+01 -.920E+00 0.112E+02   -.115E+01 0.921E+00 -.112E+02   -.672E-02 0.519E-02 -.220E-02
   -.277E+00 0.495E+00 0.163E+02   0.274E+00 -.494E+00 -.163E+02   -.107E-01 0.106E-01 0.995E-03
   -.386E+00 -.784E+00 0.163E+02   0.388E+00 0.783E+00 -.162E+02   0.123E-01 -.152E-01 -.112E-01
   0.625E+00 -.228E+00 0.975E+01   -.623E+00 0.227E+00 -.975E+01   0.352E-02 -.252E-02 -.281E-02
   0.173E+00 0.538E+00 0.962E+01   -.173E+00 -.538E+00 -.963E+01   -.543E-02 0.359E-02 0.607E-02
   -.178E+01 0.204E+00 0.125E+02   0.178E+01 -.207E+00 -.125E+02   0.113E-01 0.806E-02 -.261E-02
   -.167E+01 -.679E+00 0.119E+02   0.168E+01 0.679E+00 -.119E+02   -.905E-02 0.924E-02 0.909E-03
   0.639E+00 -.131E+01 0.114E+02   -.638E+00 0.131E+01 -.114E+02   0.459E-02 0.212E-02 -.678E-02
   0.558E-01 -.577E+00 0.101E+02   -.582E-01 0.579E+00 -.101E+02   -.466E-02 0.243E-02 -.202E-02
   -.119E+01 -.121E+01 0.131E+02   0.119E+01 0.121E+01 -.131E+02   -.122E-01 -.805E-02 -.137E-01
   -.873E+00 -.165E+01 0.114E+02   0.874E+00 0.165E+01 -.114E+02   0.803E-03 -.131E-02 0.202E-02
   0.729E-01 0.353E+00 0.929E+01   -.732E-01 -.353E+00 -.929E+01   0.532E-02 -.480E-02 0.768E-02
   0.207E+00 0.321E+00 0.954E+01   -.210E+00 -.320E+00 -.954E+01   -.218E-02 0.452E-02 -.667E-03
   -.783E+00 0.144E+00 0.979E+01   0.786E+00 -.145E+00 -.979E+01   0.410E-02 -.243E-02 0.650E-02
   -.694E+00 -.317E+00 0.970E+01   0.694E+00 0.317E+00 -.970E+01   -.413E-02 0.238E-02 0.437E-02
   -.131E+01 -.706E+00 0.101E+02   0.132E+01 0.704E+00 -.101E+02   -.127E-02 0.117E-02 0.364E-02
   -.873E+00 -.698E+00 0.951E+01   0.874E+00 0.699E+00 -.952E+01   -.413E-02 0.134E-02 0.953E-02
   -.793E+00 -.100E+01 0.978E+01   0.793E+00 0.101E+01 -.978E+01   -.309E-02 0.434E-03 0.507E-02
   -.118E+00 -.278E+00 0.925E+01   0.119E+00 0.278E+00 -.926E+01   0.205E-02 0.654E-03 0.765E-02
   0.300E+00 0.752E+00 0.926E+01   -.301E+00 -.753E+00 -.927E+01   -.405E-02 0.192E-02 0.732E-02
   0.904E+00 0.138E+01 0.102E+02   -.903E+00 -.138E+01 -.102E+02   -.523E-03 -.824E-03 0.787E-02
   0.996E-01 0.124E+01 0.957E+01   -.959E-01 -.124E+01 -.958E+01   -.495E-03 0.985E-03 0.262E-02
   -.889E-02 0.180E+01 0.111E+02   0.102E-01 -.180E+01 -.111E+02   -.848E-02 0.211E-02 0.534E-02
   -.238E+00 0.444E+00 0.984E+01   0.241E+00 -.446E+00 -.985E+01   0.393E-02 -.298E-02 0.199E-02
   -.865E+00 0.108E+01 0.105E+02   0.866E+00 -.108E+01 -.105E+02   -.631E-02 0.431E-03 -.104E-02
   -.242E+00 -.547E+00 0.974E+01   0.242E+00 0.547E+00 -.974E+01   0.638E-02 -.140E-02 0.652E-02
   -.495E+00 0.175E+00 0.930E+01   0.494E+00 -.174E+00 -.930E+01   -.343E-02 0.334E-02 -.266E-02
   0.501E-01 -.336E+00 0.930E+01   -.506E-01 0.337E+00 -.930E+01   0.445E-02 -.316E-02 0.614E-02
   0.536E+00 0.383E+00 0.928E+01   -.539E+00 -.381E+00 -.928E+01   0.149E-03 0.166E-02 0.358E-02
   -.249E-03 0.250E-01 -.138E+03   -.413E-02 -.210E-01 0.138E+03   -.291E-02 0.184E-02 -.935E-03
   -.228E+03 0.155E+03 -.218E+03   0.279E+03 -.190E+03 0.221E+03   -.523E+02 0.356E+02 -.351E+01
   0.228E+03 -.155E+03 -.198E+03   -.279E+03 0.190E+03 0.195E+03   0.523E+02 -.356E+02 0.316E+01
 -----------------------------------------------------------------------------------------------
   -.789E-02 0.146E-01 0.357E+00   0.568E-13 0.284E-13 0.853E-13   0.752E-02 -.148E-01 -.348E+00
 
 
 POSITION                                       TOTAL-FORCE (eV/Angst)
 -----------------------------------------------------------------------------------
     11.98348      0.00342      0.01417         0.003428     -0.001891     -0.001469
     -0.34154      1.42665      0.01100        -0.000950     -0.000073     -0.003699
      2.12355      0.00315      0.01249        -0.002220      0.010823     -0.007259
      2.12326      1.42653      0.00641         0.013957      0.000975     -0.008656
     10.75099      2.13819      0.01213         0.000865     -0.005815     -0.000200
     -1.57382      3.56123      0.01110        -0.009361      0.004501     -0.001509
      0.89078      2.13854      0.00548         0.009747     -0.019612      0.002917
      0.89099      3.56147      0.00181        -0.012168     -0.002620      0.013479
      4.58864      0.00346      0.01135         0.003653     -0.016339     -0.003886
      4.58894      1.42623      0.00646        -0.023788      0.013461      0.015339
      9.51854      4.27281      0.01369         0.007091     -0.002898      0.000054
     -2.80632      5.69591      0.01434        -0.007011      0.003346      0.000653
      2.12300      4.27302      0.00000         0.025362     -0.004992      0.022969
      2.12335      5.69594      0.00581        -0.000689      0.009287     -0.002416
      7.05344      0.00333      0.01399         0.009495     -0.005719     -0.000667
      7.05353      1.42635      0.01368        -0.001677      0.005110     -0.004165
      8.28610      6.40752      0.01601         0.003221     -0.001209     -0.001114
     -4.03885      7.83070      0.01636        -0.002552      0.000994     -0.000455
      3.35586      6.40753      0.01007         0.005545      0.000729     -0.001237
      3.35599      7.83072      0.01320        -0.003055      0.000278     -0.000843
     -0.34146      4.27290      0.00723        -0.001704     -0.001334     -0.004365
     -0.34138      5.69591      0.00946        -0.009397      0.006572     -0.001163
      3.35624      2.13791      0.00222        -0.014528      0.012228      0.017834
      3.35573      3.56155      0.00139         0.014303     -0.016569      0.009887
     -1.57395      6.40758      0.01311         0.005647     -0.003935     -0.000592
     -1.57385      7.83068      0.01438        -0.005156      0.004055     -0.000264
      5.82093      2.13784      0.01033         0.016235      0.005010     -0.003215
      5.82114      3.56097      0.01156        -0.006287      0.008768     -0.004208
      0.89092      6.40755      0.00907         0.004635      0.002267     -0.002123
      0.89106      7.83068      0.01235        -0.006922      0.004284      0.000215
      4.58871      4.27293      0.00850        -0.013614     -0.006198     -0.011525
      4.58852      5.69606      0.01149         0.002496     -0.001407     -0.004462
      9.51845      0.00337      0.01490         0.005045     -0.004989     -0.000096
      9.51855      1.42644      0.01438        -0.005437      0.005506     -0.000473
      8.28593      2.13803      0.01453         0.007158     -0.003516      0.000259
      8.28613      3.56115      0.01464        -0.004627      0.002154     -0.000210
      7.05356      4.27269      0.01457         0.002863     -0.000940     -0.001161
      7.05362      5.69588      0.01553        -0.002586      0.001570     -0.000370
      5.82112      6.40755      0.01489        -0.003233      0.002075     -0.000410
      5.82102      7.83073      0.01579         0.003076      0.000261     -0.000600
      7.05363      8.54227      0.01631        -0.004822      0.001489      0.000753
     -5.27149      9.96549      0.01495         0.000352     -0.002166     -0.002789
     -2.80638      8.54234      0.01558         0.003315     -0.001551     -0.001615
     -2.80627      9.96553      0.01362        -0.007153      0.000003     -0.004499
     -0.34149      8.54239      0.01378         0.005897     -0.005315      0.000094
     -0.34138      9.96550      0.01354        -0.005953      0.000269     -0.001502
      2.12343      8.54232      0.01336         0.005983     -0.001810      0.000754
      2.12354      9.96544      0.01469        -0.005178      0.004236     -0.002150
      4.58846      8.54235      0.01505         0.003799     -0.002838      0.000820
      4.58853      9.96550      0.01517        -0.002746      0.003540     -0.000113
      3.04930      2.68154      7.49154        -0.007358      0.005902      0.039829
      4.02070      2.02068      7.55596        -1.424846      0.969028     -0.111293
      2.07767      3.34267      7.43208         1.431846     -0.974985      0.070917
 -----------------------------------------------------------------------------------
    total drift:                               -0.000366     -0.000183      0.009572


--------------------------------------------------------------------------------------------------------



  FREE ENERGIE OF THE ION-ELECTRON SYSTEM (eV)
  ---------------------------------------------------
  free  energy   TOTEN  =      -523.31303692 eV

  energy  without entropy=     -523.31303692  energy(sigma->0) =     -523.31303692
 


--------------------------------------------------------------------------------------------------------


    POTLOK:  cpu time    1.4389: real time    1.4469


--------------------------------------------------------------------------------------------------------


 writing wavefunctions
     LOOP+:  cpu time  690.8188: real time  696.5550
    4ORBIT:  cpu time    0.0000: real time    0.0000

 total amount of memory used by VASP MPI-rank0   556209. kBytes
=======================================================================

   base      :      30000. kBytes
   nonl-proj :     184518. kBytes
   fftplans  :      31725. kBytes
   grid      :     282516. kBytes
   one-center:        162. kBytes
   wavefun   :      27288. kBytes
 
  
  
 General timing and accounting informations for this job:
 ========================================================
  
                  Total CPU time used (sec):      729.262
                            User time (sec):      709.315
                          System time (sec):       19.947
                         Elapsed time (sec):      736.267
  
                   Maximum memory used (kb):     1032552.
                   Average memory used (kb):          N/A
  
                          Minor page faults:       145087
                          Major page faults:           53
                 Voluntary context switches:         3674
