 vasp.6.2.1 16May21 (build Nov 06 2021 14:46:37) complex                        
  
 executed on             LinuxIFC date 2025.04.16  18:10:39
 running on  112 total cores
 distrk:  each k-point on   56 cores,    2 groups
 distr:  one band on NCORE=   1 cores,   56 groups


--------------------------------------------------------------------------------------------------------


 INCAR:
   ALGO = Conjugate
   KPAR = 2
   NCORE = 32
   ISMEAR = 0
   SIGMA = 0.01
   PREC = Accurate
   EDIFF = 1E-7
   ENCUT = 1000
   ISIF = 0
   METAGGA = R2SCAN
   LASPH = .TRUE.
   SYMPREC = 1E-7

 POTCAR:    PAW_PBE C_h 06Feb2004                 
 POTCAR:    PAW_PBE O_h 06Feb2004                 
 -----------------------------------------------------------------------------
|                                                                             |
|           W    W    AA    RRRRR   N    N  II  N    N   GGGG   !!!           |
|           W    W   A  A   R    R  NN   N  II  NN   N  G    G  !!!           |
|           W    W  A    A  R    R  N N  N  II  N N  N  G       !!!           |
|           W WW W  AAAAAA  RRRRR   N  N N  II  N  N N  G  GGG   !            |
|           WW  WW  A    A  R   R   N   NN  II  N   NN  G    G                |
|           W    W  A    A  R    R  N    N  II  N    N   GGGG   !!!           |
|                                                                             |
|     The value NCORE = 32 specified in the INCAR file was overwritten,       |
|     because it was not compatible with the 56 processes available:          |
|     NCORE = 1                                                               |
|     was used instead, please check that this makes sense for your           |
|     machine.                                                                |
|                                                                             |
 -----------------------------------------------------------------------------

 -----------------------------------------------------------------------------
|                                                                             |
|           W    W    AA    RRRRR   N    N  II  N    N   GGGG   !!!           |
|           W    W   A  A   R    R  NN   N  II  NN   N  G    G  !!!           |
|           W    W  A    A  R    R  N N  N  II  N N  N  G       !!!           |
|           W WW W  AAAAAA  RRRRR   N  N N  II  N  N N  G  GGG   !            |
|           WW  WW  A    A  R   R   N   NN  II  N   NN  G    G                |
|           W    W  A    A  R    R  N    N  II  N    N   GGGG   !!!           |
|                                                                             |
|     For optimal performance we recommend to set                             |
|       NCORE = 2 up to number-of-cores-per-socket                            |
|     NCORE specifies how many cores store one orbital (NPAR=cpu/NCORE).      |
|     This setting can greatly improve the performance of VASP for DFT.       |
|     The default, NCORE=1 might be grossly inefficient on modern             |
|     multi-core architectures or massively parallel machines. Do your        |
|     own testing! More info at https://www.vasp.at/wiki/index.php/NCORE      |
|     Unfortunately you need to use the default for GW and RPA                |
|     calculations (for HF NCORE is supported but not extensively tested      |
|     yet).                                                                   |
|                                                                             |
 -----------------------------------------------------------------------------

 POTCAR:    PAW_PBE C_h 06Feb2004                 
   VRHFIN =C: s2p2                                                                                  
   LEXCH  = PE                                                                                      
   EATOM  =   147.1560 eV,   10.8157 Ry                                                             
                                                                                                    
   TITEL  = PAW_PBE C_h 06Feb2004                                                                   
   LULTRA =        F    use ultrasoft PP ?                                                          
   IUNSCR =        1    unscreen: 0-lin 1-nonlin 2-no                                               
   RPACOR =    0.800    partial core radius                                                         
   POMASS =   12.011; ZVAL   =    4.000    mass and valenz                                          
   RCORE  =    1.100    outmost cutoff radius                                                       
   RWIGS  =    1.630; RWIGS  =    0.863    wigner-seitz radius (au A)                               
   ENMAX  =  700.000; ENMIN  =  500.000 eV                                                          
   ICORE  =        2    local potential                                                             
   LCOR   =        T    correct aug charges                                                         
   LPAW   =        T    paw PP                                                                      
   EAUG   =  946.768                                                                                
   DEXC   =    0.000                                                                                
   RMAX   =    1.128    core radius for proj-oper                                                   
   RAUG   =    1.300    factor for augmentation sphere                                              
   RDEP   =    1.162    radius for radial grids                                                     
   RDEPT  =    1.088    core radius for aug-charge                                                  
                                                                                                    
   Atomic configuration                                                                             
    4 entries                                                                                       
     n  l   j            E        occ.                                                              
     1  0  0.50      -273.3789   2.0000                                                             
     2  0  0.50       -13.7508   2.0000                                                             
     2  1  0.50        -5.2854   2.0000                                                             
     3  2  1.50        -5.4423   0.0000                                                             
   Description                                                                                      
     l       E           TYP  RCUT    TYP  RCUT                                                     
     0    -13.7508458     23  1.100                                                                 
     0     -8.2022199     23  1.100                                                                 
     1     -5.2854383     23  1.100                                                                 
     1      1.1560700     23  1.100                                                                 
     2     -5.4423304      7  1.100                                                                 
  local pseudopotential read in
  partial core-charges read in
  partial kinetic energy density read in
  atomic valenz-charges read in
  non local Contribution for L=           0  read in
    real space projection operators read in
  non local Contribution for L=           0  read in
    real space projection operators read in
  non local Contribution for L=           1  read in
    real space projection operators read in
  non local Contribution for L=           1  read in
    real space projection operators read in
    PAW grid and wavefunctions read in
 
   number of l-projection  operators is LMAX  =           4
   number of lm-projection operators is LMMAX =           8
 
 POTCAR:    PAW_PBE O_h 06Feb2004                 
   VRHFIN =O: s2p4                                                                                  
   LEXCH  = PE                                                                                      
   EATOM  =   432.3788 eV,   31.7789 Ry                                                             
                                                                                                    
   TITEL  = PAW_PBE O_h 06Feb2004                                                                   
   LULTRA =        F    use ultrasoft PP ?                                                          
   IUNSCR =        1    unscreen: 0-lin 1-nonlin 2-no                                               
   RPACOR =    0.800    partial core radius                                                         
   POMASS =   16.000; ZVAL   =    6.000    mass and valenz                                          
   RCORE  =    1.100    outmost cutoff radius                                                       
   RWIGS  =    1.400; RWIGS  =    0.741    wigner-seitz radius (au A)                               
   ENMAX  =  700.000; ENMIN  =  500.000 eV                                                          
   ICORE  =        2    local potential                                                             
   LCOR   =        T    correct aug charges                                                         
   LPAW   =        T    paw PP                                                                      
   EAUG   =  888.804                                                                                
   DEXC   =    0.000                                                                                
   RMAX   =    1.128    core radius for proj-oper                                                   
   RAUG   =    1.300    factor for augmentation sphere                                              
   RDEP   =    1.125    radius for radial grids                                                     
   RDEPT  =    1.088    core radius for aug-charge                                                  
                                                                                                    
   Atomic configuration                                                                             
    4 entries                                                                                       
     n  l   j            E        occ.                                                              
     1  0  0.50      -514.6923   2.0000                                                             
     2  0  0.50       -23.9615   2.0000                                                             
     2  1  0.50        -9.0305   4.0000                                                             
     3  2  1.50        -9.5241   0.0000                                                             
   Description                                                                                      
     l       E           TYP  RCUT    TYP  RCUT                                                     
     0    -23.9615319     23  1.100                                                                 
     0    -25.3221145     23  1.100                                                                 
     1     -9.0304911     23  1.100                                                                 
     1     -5.4802209     23  1.100                                                                 
     2     -9.5240782      7  1.100                                                                 
  local pseudopotential read in
  partial core-charges read in
  partial kinetic energy density read in
  atomic valenz-charges read in
  non local Contribution for L=           0  read in
    real space projection operators read in
  non local Contribution for L=           0  read in
    real space projection operators read in
  non local Contribution for L=           1  read in
    real space projection operators read in
  non local Contribution for L=           1  read in
    real space projection operators read in
    PAW grid and wavefunctions read in
 
   number of l-projection  operators is LMAX  =           4
   number of lm-projection operators is LMMAX =           8
 
 -----------------------------------------------------------------------------
|                                                                             |
|               ----> ADVICE to this user running VASP <----                  |
|                                                                             |
|     You have a (more or less) 'large supercell' and for larger cells it     |
|     might be more efficient to use real-space projection operators.         |
|     Therefore, try LREAL= Auto in the INCAR file.                           |
|     Mind: For very accurate calculation, you might also keep the            |
|     reciprocal projection scheme (i.e. LREAL=.FALSE.).                      |
|                                                                             |
 -----------------------------------------------------------------------------

  PAW_PBE C_h 06Feb2004                 :
 energy of atom  1       EATOM= -147.1560
 kinetic energy error for atom=    0.0031 (will be added to EATOM!!)
  PAW_PBE O_h 06Feb2004                 :
 energy of atom  2       EATOM= -432.3788
 kinetic energy error for atom=    0.0171 (will be added to EATOM!!)
 
 
 POSCAR:  C  O
  positions in cartesian coordinates
  No initial velocities read in

 METAGGA = R2SCA    LMAXTAU =  6    LMIXTAU =  F

 exchange correlation table for  LEXCH =        8
   RHO(1)=    0.500       N(1)  =     2000
   RHO(2)=  100.500       N(2)  =     4000
 


--------------------------------------------------------------------------------------------------------


 ion  position               nearest neighbor table
   1  0.972  0.000  0.001-  50 1.42   2 1.42  42 1.42
   2  0.039  0.134  0.000-   5 1.42   7 1.42   1 1.42
   3  0.172  0.000  0.000-  42 1.42  44 1.42   4 1.42
   4  0.239  0.134  0.000-   7 1.42   3 1.42  23 1.42
   5  0.972  0.200  0.000-   6 1.42   2 1.42  34 1.42
   6  0.039  0.334  0.000-   5 1.42  21 1.42  11 1.42
   7  0.172  0.200  0.000-   8 1.42   2 1.42   4 1.42
   8  0.239  0.334  0.000-  13 1.42   7 1.42  21 1.42
   9  0.372  0.000  0.000-  10 1.42  44 1.42  46 1.42
  10  0.439  0.134  0.000-  27 1.42   9 1.42  23 1.42
  11  0.972  0.400  0.001-  12 1.42  36 1.42   6 1.42
  12  0.039  0.534  0.001-  25 1.42  11 1.42  17 1.42
  13  0.372  0.400  0.000-   8 1.42  14 1.42  24 1.42
  14  0.439  0.534  0.000-  13 1.42  29 1.42  19 1.42
  15  0.572  0.000  0.001-  46 1.42  16 1.42  48 1.42
  16  0.639  0.134  0.001-  15 1.42  35 1.42  27 1.42
  17  0.972  0.600  0.001-  38 1.42  18 1.42  12 1.42
  18  0.039  0.734  0.001-  43 1.42  41 1.42  17 1.42
  19  0.572  0.600  0.000-  14 1.42  20 1.42  32 1.42
  20  0.639  0.734  0.001-  49 1.42  19 1.42  47 1.42
  21  0.172  0.400  0.000-  22 1.42   8 1.42   6 1.42
  22  0.239  0.534  0.000-  21 1.42  29 1.42  25 1.42
  23  0.372  0.200  0.000-  10 1.42   4 1.42  24 1.42
  24  0.439  0.334  0.000-  13 1.42  31 1.42  23 1.42
  25  0.172  0.600  0.001-  26 1.42  12 1.42  22 1.42
  26  0.239  0.734  0.001-  25 1.42  45 1.42  43 1.42
  27  0.572  0.200  0.000-  10 1.42  28 1.42  16 1.42
  28  0.639  0.334  0.000-  27 1.42  37 1.42  31 1.42
  29  0.372  0.600  0.000-  22 1.42  14 1.42  30 1.42
  30  0.439  0.734  0.000-  47 1.42  29 1.42  45 1.42
  31  0.572  0.400  0.000-  32 1.42  28 1.42  24 1.42
  32  0.639  0.534  0.000-  31 1.42  39 1.42  19 1.42
  33  0.772  0.000  0.001-  34 1.42  48 1.42  50 1.42
  34  0.839  0.134  0.001-  33 1.42   5 1.42  35 1.42
  35  0.772  0.200  0.001-  36 1.42  16 1.42  34 1.42
  36  0.839  0.334  0.001-  35 1.42  11 1.42  37 1.42
  37  0.772  0.400  0.001-  28 1.42  38 1.42  36 1.42
  38  0.839  0.534  0.001-  17 1.42  37 1.42  39 1.42
  39  0.772  0.600  0.001-  40 1.42  38 1.42  32 1.42
  40  0.839  0.734  0.001-  39 1.42  49 1.42  41 1.42
  41  0.972  0.800  0.001-  18 1.42  42 1.42  40 1.42
  42  0.039  0.934  0.001-   3 1.42  41 1.42   1 1.42
  43  0.172  0.800  0.001-  18 1.42  44 1.42  26 1.42
  44  0.239  0.934  0.001-   9 1.42  43 1.42   3 1.42
  45  0.372  0.800  0.001-  26 1.42  46 1.42  30 1.42
  46  0.439  0.934  0.001-  15 1.42  45 1.42   9 1.42
  47  0.572  0.800  0.001-  30 1.42  48 1.42  20 1.42
  48  0.639  0.934  0.001-  47 1.42  33 1.42  15 1.42
  49  0.772  0.800  0.001-  50 1.42  20 1.42  40 1.42
  50  0.839  0.934  0.001-  49 1.42   1 1.42  33 1.42
  51  0.373  0.251  0.133-  52 1.18  53 1.18
  52  0.421  0.189  0.136-  51 1.18
  53  0.325  0.313  0.131-  51 1.18
 
  LATTYP: Found a hexagonal cell.
 ALAT       =    12.3250000000
 C/A-ratio  =     2.0283975659
  
  Lattice vectors:
  
 A1 = (  12.3250000000,   0.0000000000,   0.0000000000)
 A2 = (  -6.1625000000,  10.6737631016,   0.0000000000)
 A3 = (   0.0000000000,   0.0000000000,  25.0000000000)


Analysis of symmetry for initial positions (statically):
=====================================================================
 Subroutine PRICEL returns:
 Original cell was already a primitive cell.
 

 Routine SETGRP: Setting up the symmetry group for a 
 hexagonal supercell.


 Subroutine GETGRP returns: Found  1 space group operations
 (whereof  1 operations were pure point group operations)
 out of a pool of 24 trial point group operations.


The static configuration has the point symmetry C_1 .


Analysis of symmetry for dynamics (positions and initial velocities):
=====================================================================
 Subroutine PRICEL returns:
 Original cell was already a primitive cell.
 

 Routine SETGRP: Setting up the symmetry group for a 
 hexagonal supercell.


 Subroutine GETGRP returns: Found  1 space group operations
 (whereof  1 operations were pure point group operations)
 out of a pool of 24 trial point group operations.


The dynamic configuration has the point symmetry C_1 .


 Subroutine INISYM returns: Found  1 space group operations
 (whereof  1 operations are pure point group operations),
 and found     1 'primitive' translations


----------------------------------------------------------------------------------------

                                     Primitive cell                                     

  volume of cell :    3288.8533

  direct lattice vectors                    reciprocal lattice vectors
    12.325000000  0.000000000  0.000000000     0.081135903  0.046843835  0.000000000
    -6.162500000 10.673763102  0.000000000     0.000000000  0.093687670  0.000000000
     0.000000000  0.000000000 25.000000000     0.000000000  0.000000000  0.040000000

  length of vectors
    12.325000000 12.325000000 25.000000000     0.093687670  0.093687670  0.040000000

  position of ions in fractional coordinates (direct lattice)
     0.972450841  0.000320818  0.000566711
     0.039118382  0.133659505  0.000440173
     0.172443627  0.000295449  0.000499628
     0.239096278  0.133647917  0.000256468
     0.972452058  0.200322012  0.000485219
     0.039128360  0.333643771  0.000444150
     0.172451764  0.200354552  0.000219167
     0.239124359  0.333665720  0.000072260
     0.372465565  0.000324403  0.000453913
     0.439137473  0.133619939  0.000258338
     0.972449824  0.400309362  0.000547611
     0.039124981  0.533636789  0.000573410
     0.372416176  0.400329481  0.000000000
     0.439099602  0.533638981  0.000232414
     0.572443676  0.000312125  0.000559580
     0.639110207  0.133631751  0.000547275
     0.972452703  0.600305653  0.000640289
     0.039124495  0.733640359  0.000654513
     0.572433471  0.600306242  0.000402895
     0.639111888  0.733641879  0.000527905
     0.172454630  0.400318228  0.000289045
     0.239120185  0.533636548  0.000378509
     0.372459750  0.200295993  0.000088997
     0.439107096  0.333673419  0.000055762
     0.172452155  0.600311506  0.000524340
     0.239123371  0.733638574  0.000575129
     0.572431082  0.200289171  0.000413296
     0.639112773  0.333618630  0.000462376
     0.372439808  0.600308022  0.000362844
     0.439116090  0.733637858  0.000494190
     0.572469358  0.400320504  0.000339918
     0.639119408  0.533650873  0.000459610
     0.772445723  0.000315427  0.000596161
     0.839116277  0.133640203  0.000575306
     0.772440513  0.200307432  0.000581033
     0.839120241  0.333635728  0.000585467
     0.772446320  0.400298367  0.000582978
     0.839118980  0.533633964  0.000621100
     0.772456143  0.600308173  0.000595712
     0.839115033  0.733643180  0.000631512
     0.972455313  0.800305582  0.000652233
     0.039114714  0.933643289  0.000598051
     0.172457971  0.800312211  0.000623372
     0.239134551  0.933647193  0.000544850
     0.372451396  0.800316674  0.000551399
     0.439124489  0.933644769  0.000541430
     0.572441101  0.800310054  0.000534535
     0.639115067  0.933638985  0.000587644
     0.772445098  0.800313187  0.000602062
     0.839116614  0.933644338  0.000606830
     0.373021009  0.251226878  0.133483986
     0.420879805  0.189313152  0.136060860
     0.325156981  0.313167186  0.131105791

  ion indices of the primitive-cell ions
   primitive index   ion index
                 1           1
                 2           2
                 3           3
                 4           4
                 5           5
                 6           6
                 7           7
                 8           8
                 9           9
                10          10
                11          11
                12          12
                13          13
                14          14
                15          15
                16          16
                17          17
                18          18
                19          19
                20          20
                21          21
                22          22
                23          23
                24          24
                25          25
                26          26
                27          27
                28          28
                29          29
                30          30
                31          31
                32          32
                33          33
                34          34
                35          35
                36          36
                37          37
                38          38
                39          39
                40          40
                41          41
                42          42
                43          43
                44          44
                45          45
                46          46
                47          47
                48          48
                49          49
                50          50
                51          51
                52          52
                53          53

----------------------------------------------------------------------------------------

 
 
 KPOINTS: auto                                    

Automatic generation of k-mesh.
 Grid dimensions read from file:
 generate k-points for:    1    1    1

 Generating k-lattice:

  Cartesian coordinates                     Fractional coordinates (reciprocal lattice)
     0.081135903  0.046843835  0.000000000     1.000000000 -0.000000000  0.000000000
     0.000000000  0.093687670  0.000000000     0.000000000  1.000000000  0.000000000
     0.000000000  0.000000000  0.040000000     0.000000000  0.000000000  1.000000000

  Length of vectors
     0.093687670  0.093687670  0.040000000

  Shift w.r.t. Gamma in fractional coordinates (k-lattice)
     0.000000000  0.000000000  0.000000000

 
 Subroutine IBZKPT returns following result:
 ===========================================
 
 Found      1 irreducible k-points:
 
 Following reciprocal coordinates:
            Coordinates               Weight
  0.000000  0.000000  0.000000      1.000000
 
 Following cartesian coordinates:
            Coordinates               Weight
  0.000000  0.000000  0.000000      1.000000
 


--------------------------------------------------------------------------------------------------------




 Dimension of arrays:
   k-points           NKPTS =      1   k-points in BZ     NKDIM =      1   number of bands    NBANDS=    168
   number of dos      NEDOS =    301   number of ions     NIONS =     53
   non local maximal  LDIM  =      4   non local SUM 2l+1 LMDIM =      8
   total plane-waves  NPLWV = ******
   max r-space proj   IRMAX =      1   max aug-charges    IRDMAX=  10008
   dimension x,y,z NGX =   128 NGY =  128 NGZ =  270
   dimension x,y,z NGXF=   256 NGYF=  256 NGZF=  540
   support grid    NGXF=   256 NGYF=  256 NGZF=  540
   ions per type =              51   2
   NGX,Y,Z   is equivalent  to a cutoff of  17.27, 17.27, 17.95 a.u.
   NGXF,Y,Z  is equivalent  to a cutoff of  34.53, 34.53, 35.91 a.u.

 SYSTEM =  unknown system                          
 POSCAR =   C  O                                   

 Startparameter for this run:
   NWRITE =      2    write-flag & timer
   PREC   = accura    normal or accurate (medium, high low for compatibility)
   ISTART =      0    job   : 0-new  1-cont  2-samecut
   ICHARG =      2    charge: 1-file 2-atom 10-const
   ISPIN  =      1    spin polarized calculation?
   LNONCOLLINEAR =      F non collinear calculations
   LSORBIT =      F    spin-orbit coupling
   INIWAV =      1    electr: 0-lowe 1-rand  2-diag
   LASPH  =      T    aspherical Exc in radial PAW
 Electronic Relaxation 1
   ENCUT  = 1000.0 eV  73.50 Ry    8.57 a.u.  31.78 31.78 64.46*2*pi/ulx,y,z
   ENINI  = 1000.0     initial cutoff
   ENAUG  =  946.8 eV  augmentation charge cutoff
   NELM   =     60;   NELMIN=  2; NELMDL= -5     # of ELM steps 
   EDIFF  = 0.1E-06   stopping-criterion for ELM
   LREAL  =      F    real-space projection
   NLSPLINE    = F    spline interpolate recip. space projectors
   LCOMPAT=      F    compatible to vasp.4.4
   GGA_COMPAT  = T    GGA compatible to vasp.4.4-vasp.4.6
   LMAXPAW     = -100 max onsite density
   LMAXMIX     =    2 max onsite mixed and CHGCAR
   VOSKOWN=      0    Vosko Wilk Nusair interpolation
   ROPT   =    0.00000   0.00000
 Ionic relaxation
   EDIFFG = 0.1E-05   stopping-criterion for IOM
   NSW    =      0    number of steps for IOM
   NBLOCK =      1;   KBLOCK =      1    inner block; outer block 
   IBRION =     -1    ionic relax: 0-MD 1-quasi-New 2-CG
   NFREE  =      0    steps in history (QN), initial steepest desc. (CG)
   ISIF   =      0    stress and relaxation
   IWAVPR =     10    prediction:  0-non 1-charg 2-wave 3-comb
   ISYM   =      2    0-nonsym 1-usesym 2-fastsym
   LCORR  =      T    Harris-Foulkes like correction to forces

   POTIM  = 0.5000    time-step for ionic-motion
   TEIN   =    0.0    initial temperature
   TEBEG  =    0.0;   TEEND  =   0.0 temperature during run
   SMASS  =  -3.00    Nose mass-parameter (am)
   estimated Nose-frequenzy (Omega)   =  0.10E-29 period in steps = 0.13E+47 mass=  -0.347E-26a.u.
   SCALEE = 1.0000    scale energy and forces
   NPACO  =    256;   APACO  = 16.0  distance and # of slots for P.C.
   PSTRESS=    0.0 pullay stress

  Mass of Ions in am
   POMASS =  12.01 16.00
  Ionic Valenz
   ZVAL   =   4.00  6.00
  Atomic Wigner-Seitz radii
   RWIGS  =  -1.00 -1.00
  virtual crystal weights 
   VCA    =   1.00  1.00
   NELECT =     216.0000    total number of electrons
   NUPDOWN=      -1.0000    fix difference up-down

 DOS related values:
   EMIN   =  10.00;   EMAX   =-10.00  energy-range for DOS
   EFERMI =   0.00
   ISMEAR =     0;   SIGMA  =   0.01  broadening in eV -4-tet -1-fermi 0-gaus

 Electronic relaxation 2 (details)
   IALGO  =     58    algorithm
   LDIAG  =      T    sub-space diagonalisation (order eigenvalues)
   LSUBROT=      F    optimize rotation matrix (better conditioning)
   TURBO    =      0    0=normal 1=particle mesh
   IRESTART =      0    0=no restart 2=restart with 2 vectors
   NREBOOT  =      0    no. of reboots
   NMIN     =      0    reboot dimension
   EREF     =   0.00    reference energy to select bands
   IMIX   =      4    mixing-type and parameters
     AMIX     =   0.40;   BMIX     =  1.00
     AMIX_MAG =   1.60;   BMIX_MAG =  1.00
     AMIN     =   0.10
     WC   =   100.;   INIMIX=   1;  MIXPRE=   1;  MAXMIX= -45

 Intra band minimization:
   WEIMIN = 0.0000     energy-eigenvalue tresh-hold
   EBREAK =  0.15E-09  absolut break condition
   DEPER  =   0.30     relativ break condition  

   TIME   =   0.40     timestep for ELM

  volume/ion in A,a.u.               =      62.05       418.76
  Fermi-wavevector in a.u.,A,eV,Ry     =   0.660508  1.248179  5.935820  0.436270
  Thomas-Fermi vector in A             =   1.732977
 
 Write flags
   LWAVE        =      T    write WAVECAR
   LDOWNSAMPLE  =      F    k-point downsampling of WAVECAR
   LCHARG       =      T    write CHGCAR
   LVTOT        =      F    write LOCPOT, total local potential
   LVHAR        =      F    write LOCPOT, Hartree potential only
   LELF         =      F    write electronic localiz. function (ELF)
   LORBIT       =      0    0 simple, 1 ext, 2 COOP (PROOUT), +10 PAW based schemes


 Dipole corrections
   LMONO  =      F    monopole corrections only (constant potential shift)
   LDIPOL =      F    correct potential (dipole corrections)
   IDIPOL =      0    1-x, 2-y, 3-z, 4-all directions 
   EPSILON=  1.0000000 bulk dielectric constant

 Exchange correlation treatment:
   GGA     =    --    GGA type
   LEXCH   =     8    internal setting for exchange type
   VOSKOWN=      0    Vosko Wilk Nusair interpolation
   LHFCALC =     F    Hartree Fock is set to
   LHFONE  =     F    Hartree Fock one center treatment
   AEXX    =    0.0000 exact exchange contribution

 Linear response parameters
   LEPSILON=     F    determine dielectric tensor
   LRPA    =     F    only Hartree local field effects (RPA)
   LNABLA  =     F    use nabla operator in PAW spheres
   LVEL    =     F    velocity operator in full k-point grid
   LINTERFAST=   F  fast interpolation
   KINTER  =     0    interpolate to denser k-point grid
   CSHIFT  =0.1000    complex shift for real part using Kramers Kronig
   OMEGAMAX=  -1.0    maximum frequency
   DEG_THRESHOLD= 0.2000000E-02 threshold for treating states as degnerate
   RTIME   =   -0.100 relaxation time in fs
  (WPLASMAI=    0.000 imaginary part of plasma frequency in eV, 0.658/RTIME)
   DFIELD  = 0.0000000 0.0000000 0.0000000 field for delta impulse in time
 
 Orbital magnetization related:
   ORBITALMAG=     F  switch on orbital magnetization
   LCHIMAG   =     F  perturbation theory with respect to B field
   DQ        =  0.001000  dq finite difference perturbation B field
   LLRAUG    =     F  two centre corrections for induced B field



--------------------------------------------------------------------------------------------------------


 Static calculation
 charge density and potential will be updated during run
 non-spin polarized calculation
 Conjugate gradient for all bands (Freysoldt, et al. PRB 79, 241103 (2009))
 preconditioned conjugated gradient                                        
 perform sub-space diagonalisation
    before iterative eigenvector-optimisation
 modified Broyden-mixing scheme, WC =      100.0
 initial mixing is a Kerker type mixing with AMIX =  0.4000 and BMIX =      1.0000
 Hartree-type preconditioning will be used
 using additional bands           60
 reciprocal scheme for non local part
 use partial core corrections
 no Harris-corrections to forces 
 use gradient corrections 
 use of overlap-Matrix (Vanderbilt PP)
 Gauss-broadening in eV      SIGMA  =   0.01


--------------------------------------------------------------------------------------------------------


  energy-cutoff  :     1000.00
  volume of cell :     3288.85
      direct lattice vectors                 reciprocal lattice vectors
    12.325000000  0.000000000  0.000000000     0.081135903  0.046843835  0.000000000
    -6.162500000 10.673763102  0.000000000     0.000000000  0.093687670  0.000000000
     0.000000000  0.000000000 25.000000000     0.000000000  0.000000000  0.040000000

  length of vectors
    12.325000000 12.325000000 25.000000000     0.093687670  0.093687670  0.040000000


 
 k-points in units of 2pi/SCALE and weight: auto                                    
   0.00000000  0.00000000  0.00000000       1.000
 
 k-points in reciprocal lattice and weights: auto                                    
   0.00000000  0.00000000  0.00000000       1.000
 
 position of ions in fractional coordinates (direct lattice) 
   0.97245084  0.00032082  0.00056671
   0.03911838  0.13365950  0.00044017
   0.17244363  0.00029545  0.00049963
   0.23909628  0.13364792  0.00025647
   0.97245206  0.20032201  0.00048522
   0.03912836  0.33364377  0.00044415
   0.17245176  0.20035455  0.00021917
   0.23912436  0.33366572  0.00007226
   0.37246557  0.00032440  0.00045391
   0.43913747  0.13361994  0.00025834
   0.97244982  0.40030936  0.00054761
   0.03912498  0.53363679  0.00057341
   0.37241618  0.40032948  0.00000000
   0.43909960  0.53363898  0.00023241
   0.57244368  0.00031213  0.00055958
   0.63911021  0.13363175  0.00054727
   0.97245270  0.60030565  0.00064029
   0.03912449  0.73364036  0.00065451
   0.57243347  0.60030624  0.00040289
   0.63911189  0.73364188  0.00052791
   0.17245463  0.40031823  0.00028904
   0.23912018  0.53363655  0.00037851
   0.37245975  0.20029599  0.00008900
   0.43910710  0.33367342  0.00005576
   0.17245216  0.60031151  0.00052434
   0.23912337  0.73363857  0.00057513
   0.57243108  0.20028917  0.00041330
   0.63911277  0.33361863  0.00046238
   0.37243981  0.60030802  0.00036284
   0.43911609  0.73363786  0.00049419
   0.57246936  0.40032050  0.00033992
   0.63911941  0.53365087  0.00045961
   0.77244572  0.00031543  0.00059616
   0.83911628  0.13364020  0.00057531
   0.77244051  0.20030743  0.00058103
   0.83912024  0.33363573  0.00058547
   0.77244632  0.40029837  0.00058298
   0.83911898  0.53363396  0.00062110
   0.77245614  0.60030817  0.00059571
   0.83911503  0.73364318  0.00063151
   0.97245531  0.80030558  0.00065223
   0.03911471  0.93364329  0.00059805
   0.17245797  0.80031221  0.00062337
   0.23913455  0.93364719  0.00054485
   0.37245140  0.80031667  0.00055140
   0.43912449  0.93364477  0.00054143
   0.57244110  0.80031005  0.00053453
   0.63911507  0.93363899  0.00058764
   0.77244510  0.80031319  0.00060206
   0.83911661  0.93364434  0.00060683
   0.37302101  0.25122688  0.13348399
   0.42087980  0.18931315  0.13606086
   0.32515698  0.31316719  0.13110579
 
 position of ions in cartesian coordinates  (Angst):
  11.98347958  0.00342433  0.01416777
  -0.34154264  1.42664989  0.01100432
   2.12354700  0.00315355  0.01249070
   2.12325634  1.42652621  0.00641170
  10.75098721  2.13818970  0.01213047
  -1.57382270  3.56123457  0.01110375
   0.89078307  2.13853702  0.00547917
   0.89099273  3.56146885  0.00180651
   4.58863896  0.00346260  0.01134782
   4.58893648  1.42622757  0.00645846
   9.51853763  4.27280730  0.01369027
  -2.80632132  5.69591267  0.01433526
   2.12299894  4.27302204  0.00000000
   2.12335237  5.69593607  0.00581036
   7.05344483  0.00333155  0.01398950
   7.05352764  1.42635365  0.01368187
   8.28609598  6.40752033  0.01600723
  -4.03884931  7.83070339  0.01636283
   3.35585531  6.40752662  0.01007237
   3.35598594  7.83071962  0.01319763
  -0.34145776  4.27290193  0.00722612
  -0.34137895  5.69591010  0.00946273
   3.35624236  2.13791198  0.00222492
   3.35573251  3.56155103  0.00139405
  -1.57394684  6.40758280  0.01310850
  -1.57385216  7.83068434  0.01437823
   5.82093107  2.13783916  0.01033241
   5.82114012  3.56096622  0.01155939
   0.89092245  6.40754561  0.00907111
   0.89106251  7.83067670  0.01235474
   4.58870974  4.27292622  0.00849795
   4.58852320  5.69606300  0.01149026
   9.51844972  0.00336679  0.01490402
   9.51855036  1.42644387  0.01438264
   8.28593477  2.13803408  0.01452582
   8.28612680  3.56114872  0.01463668
   7.05356221  4.27268994  0.01457444
   7.05362213  5.69588251  0.01552751
   5.82112285  6.40754723  0.01489279
   5.82101669  7.83073350  0.01578780
   7.05362858  8.54227219  0.01630582
  -5.27148792  9.96548729  0.01495127
  -2.80637951  8.54234295  0.01558431
  -2.80626749  9.96552896  0.01362126
  -0.34148805  8.54239058  0.01378498
  -0.34137657  9.96550309  0.01353576
   2.12342586  8.54231992  0.01336337
   2.12354296  9.96544135  0.01469111
   4.58845581  8.54235337  0.01505154
   4.58852904  9.96549848  0.01517076
   3.04929830  2.68153618  3.33709964
   4.02070129  2.02068374  3.40152150
   2.07766701  3.34267235  3.27764477
 


--------------------------------------------------------------------------------------------------------


 k-point   1 :   0.0000 0.0000 0.0000  plane waves:  236157

 maximum and minimum number of plane-waves per node :    236157   236157

 maximum number of plane-waves:    236157
 maximum index in each direction: 
   IXMAX=   31   IYMAX=   31   IZMAX=   64
   IXMIN=  -31   IYMIN=  -31   IZMIN=  -64


 serial   3D FFT for wavefunctions
 parallel 3D FFT for charge:
    minimum data exchange during FFTs selected (reduces bandwidth)


 total amount of memory used by VASP MPI-rank0   698619. kBytes
=======================================================================

   base      :      30000. kBytes
   nonl-proj :     230539. kBytes
   fftplans  :      40716. kBytes
   grid      :     363125. kBytes
   one-center:        162. kBytes
   wavefun   :      34077. kBytes
 
     INWAV:  cpu time    0.0000: real time    0.0000
 Broyden mixing: mesh for mixing (old mesh)
   NGX = 63   NGY = 63   NGZ =129
  (NGX  =256   NGY  =256   NGZ  =540)
  gives a total of 512001 points

 initial charge density was supplied:
 charge density of overlapping atoms calculated
 number of electron     216.0000000 magnetization 
 keeping initial charge density in first step


--------------------------------------------------------------------------------------------------------


 Maximum index for augmentation-charges          471 (set IRDMAX)


--------------------------------------------------------------------------------------------------------


 First call to EWALD:  gamma=   0.119
 Maximum number of real-space cells 4x 4x 2
 Maximum number of reciprocal cells 2x 2x 4

    FEWALD:  cpu time    0.0038: real time    0.0038


--------------------------------------- Iteration      1(   1)  ---------------------------------------


    POTLOK:  cpu time    1.7205: real time    1.7329
    SETDIJ:  cpu time    0.2215: real time    0.2223
    TRIAL :  cpu time   27.4434: real time   27.6458
    CORREC:  cpu time    0.0007: real time    0.0007
    --------------------------------------------
      LOOP:  cpu time   29.3977: real time   29.6336

 eigenvalue-minimisations  :   336
 total energy-change (2. order) : 0.2554366E+04  (-0.1080271E+05)
 number of electron     216.0000000 magnetization 
 augmentation part      216.0000000 magnetization 

 Free energy of the ion-electron system (eV)
  ---------------------------------------------------
  alpha Z        PSCENC =        47.94900195
  Ewald energy   TEWEN  =     47232.99051633
  -Hartree energ DENC   =    -53301.77898108
  -exchange      EXHF   =         0.00000000
  -V(xc)+E(xc)   XCENC  =       605.22797717
  PAW double counting   =      6340.10990386    -6200.63067283
  entropy T*S    EENTRO =        -0.00000000
  eigenvalues    EBANDS =      -539.02489427
  atomic energy  EATOM  =      8369.52358910
  ---------------------------------------------------
  free energy    TOTEN  =      2554.36644023 eV

  energy without entropy =     2554.36644023  energy(sigma->0) =     2554.36644023


--------------------------------------------------------------------------------------------------------




--------------------------------------- Iteration      1(   2)  ---------------------------------------


    TRIAL :  cpu time   44.6921: real time   45.0259
    CORREC:  cpu time    0.0001: real time    0.0001
    --------------------------------------------
      LOOP:  cpu time   44.7243: real time   45.0662

 eigenvalue-minimisations  :   672
 total energy-change (2. order) :-0.2538977E+04  (-0.2411219E+04)
 number of electron     216.0000000 magnetization 
 augmentation part      216.0000000 magnetization 

 Free energy of the ion-electron system (eV)
  ---------------------------------------------------
  alpha Z        PSCENC =        47.94900195
  Ewald energy   TEWEN  =     47232.99051633
  -Hartree energ DENC   =    -53301.77898108
  -exchange      EXHF   =         0.00000000
  -V(xc)+E(xc)   XCENC  =       605.22797717
  PAW double counting   =      6340.10990386    -6200.63067283
  entropy T*S    EENTRO =        -0.00000000
  eigenvalues    EBANDS =     -3078.00206598
  atomic energy  EATOM  =      8369.52358910
  ---------------------------------------------------
  free energy    TOTEN  =        15.38926852 eV

  energy without entropy =       15.38926852  energy(sigma->0) =       15.38926852


--------------------------------------------------------------------------------------------------------




--------------------------------------- Iteration      1(   3)  ---------------------------------------


    TRIAL :  cpu time   33.1331: real time   33.3925
    CORREC:  cpu time    0.0001: real time    0.0001
    --------------------------------------------
      LOOP:  cpu time   33.1745: real time   33.4364

 eigenvalue-minimisations  :   448
 total energy-change (2. order) :-0.6034778E+03  (-0.6010970E+03)
 number of electron     216.0000000 magnetization 
 augmentation part      216.0000000 magnetization 

 Free energy of the ion-electron system (eV)
  ---------------------------------------------------
  alpha Z        PSCENC =        47.94900195
  Ewald energy   TEWEN  =     47232.99051633
  -Hartree energ DENC   =    -53301.77898108
  -exchange      EXHF   =         0.00000000
  -V(xc)+E(xc)   XCENC  =       605.22797717
  PAW double counting   =      6340.10990386    -6200.63067283
  entropy T*S    EENTRO =        -0.00000000
  eigenvalues    EBANDS =     -3681.47984071
  atomic energy  EATOM  =      8369.52358910
  ---------------------------------------------------
  free energy    TOTEN  =      -588.08850620 eV

  energy without entropy =     -588.08850620  energy(sigma->0) =     -588.08850620


--------------------------------------------------------------------------------------------------------




--------------------------------------- Iteration      1(   4)  ---------------------------------------


    TRIAL :  cpu time   33.1305: real time   33.3987
    CORREC:  cpu time    0.0001: real time    0.0001
    --------------------------------------------
      LOOP:  cpu time   33.2295: real time   33.5013

 eigenvalue-minimisations  :   448
 total energy-change (2. order) :-0.1903146E+02  (-0.1893509E+02)
 number of electron     216.0000000 magnetization 
 augmentation part      216.0000000 magnetization 

 Free energy of the ion-electron system (eV)
  ---------------------------------------------------
  alpha Z        PSCENC =        47.94900195
  Ewald energy   TEWEN  =     47232.99051633
  -Hartree energ DENC   =    -53301.77898108
  -exchange      EXHF   =         0.00000000
  -V(xc)+E(xc)   XCENC  =       605.22797717
  PAW double counting   =      6340.10990386    -6200.63067283
  entropy T*S    EENTRO =        -0.00000000
  eigenvalues    EBANDS =     -3700.51130101
  atomic energy  EATOM  =      8369.52358910
  ---------------------------------------------------
  free energy    TOTEN  =      -607.11996651 eV

  energy without entropy =     -607.11996651  energy(sigma->0) =     -607.11996651


--------------------------------------------------------------------------------------------------------




--------------------------------------- Iteration      1(   5)  ---------------------------------------


    TRIAL :  cpu time   33.1249: real time   33.3864
    CORREC:  cpu time    0.0001: real time    0.0001
    CHARGE:  cpu time    2.9629: real time    2.9843
    --------------------------------------------
      LOOP:  cpu time   36.1514: real time   36.4350

 eigenvalue-minimisations  :   448
 total energy-change (2. order) :-0.5947834E+00  (-0.5932821E+00)
 number of electron     216.0000000 magnetization 
 augmentation part       -0.4453480 magnetization 

 Free energy of the ion-electron system (eV)
  ---------------------------------------------------
  alpha Z        PSCENC =        47.94900195
  Ewald energy   TEWEN  =     47232.99051633
  -Hartree energ DENC   =    -53301.77898108
  -exchange      EXHF   =         0.00000000
  -V(xc)+E(xc)   XCENC  =       605.22797717
  PAW double counting   =      6340.10990386    -6200.63067283
  entropy T*S    EENTRO =        -0.00000000
  eigenvalues    EBANDS =     -3701.10608445
  atomic energy  EATOM  =      8369.52358910
  ---------------------------------------------------
  free energy    TOTEN  =      -607.71474995 eV

  energy without entropy =     -607.71474995  energy(sigma->0) =     -607.71474995


--------------------------------------------------------------------------------------------------------




--------------------------------------- Iteration      1(   6)  ---------------------------------------


    POTLOK:  cpu time    1.6803: real time    1.6898
    SETDIJ:  cpu time    0.2355: real time    0.2398
    TRIAL :  cpu time   19.6721: real time   19.8122
    CORREC:  cpu time    8.8776: real time    8.9375
    CHARGE:  cpu time    2.9391: real time    2.9717
    --------------------------------------------
      LOOP:  cpu time   33.4685: real time   33.7175

 eigenvalue-minimisations  :     0
 total energy-change (2. order) : 0.9781705E+02  (-0.1128809E+02)
 number of electron     216.0000000 magnetization 
 augmentation part       -0.5054416 magnetization 

 Free energy of the ion-electron system (eV)
  ---------------------------------------------------
  alpha Z        PSCENC =        47.94900195
  Ewald energy   TEWEN  =     47232.99051633
  -Hartree energ DENC   =    -54644.99300213
  -exchange      EXHF   =         0.00000000
  -V(xc)+E(xc)   XCENC  =       676.64772341
  PAW double counting   =    119253.57307609  -119113.98344756
  entropy T*S    EENTRO =        -0.00000000
  eigenvalues    EBANDS =     -2331.60515544
  atomic energy  EATOM  =      8369.52358910
  ---------------------------------------------------
  free energy    TOTEN  =      -509.89769823 eV

  energy without entropy =     -509.89769823  energy(sigma->0) =     -509.89769823


--------------------------------------------------------------------------------------------------------




--------------------------------------- Iteration      1(   7)  ---------------------------------------


    POTLOK:  cpu time    1.6770: real time    1.6869
    SETDIJ:  cpu time    0.2317: real time    0.2326
    TRIAL :  cpu time   19.6636: real time   19.8127
    CORREC:  cpu time    8.8711: real time    8.9393
    CHARGE:  cpu time    2.9542: real time    2.9762
    --------------------------------------------
      LOOP:  cpu time   33.5027: real time   33.7556

 eigenvalue-minimisations  :     0
 total energy-change (2. order) :-0.1129985E+02  (-0.1441477E+01)
 number of electron     216.0000000 magnetization 
 augmentation part       -0.5388081 magnetization 

 Free energy of the ion-electron system (eV)
  ---------------------------------------------------
  alpha Z        PSCENC =        47.94900195
  Ewald energy   TEWEN  =     47232.99051633
  -Hartree energ DENC   =    -54231.33418850
  -exchange      EXHF   =         0.00000000
  -V(xc)+E(xc)   XCENC  =       659.03060384
  PAW double counting   =    138618.28035415  -138476.95014805
  entropy T*S    EENTRO =        -0.00000000
  eigenvalues    EBANDS =     -2740.68727414
  atomic energy  EATOM  =      8369.52358910
  ---------------------------------------------------
  free energy    TOTEN  =      -521.19754532 eV

  energy without entropy =     -521.19754532  energy(sigma->0) =     -521.19754532


--------------------------------------------------------------------------------------------------------




--------------------------------------- Iteration      1(   8)  ---------------------------------------


    POTLOK:  cpu time    1.6769: real time    1.6868
    SETDIJ:  cpu time    0.2468: real time    0.2478
    TRIAL :  cpu time   19.6504: real time   19.7975
    CORREC:  cpu time    8.8669: real time    8.9351
    CHARGE:  cpu time    2.9478: real time    2.9683
    --------------------------------------------
      LOOP:  cpu time   33.4427: real time   33.6909

 eigenvalue-minimisations  :     0
 total energy-change (2. order) :-0.1442098E+01  (-0.4520882E+00)
 number of electron     216.0000000 magnetization 
 augmentation part       -0.5410751 magnetization 

 Free energy of the ion-electron system (eV)
  ---------------------------------------------------
  alpha Z        PSCENC =        47.94900195
  Ewald energy   TEWEN  =     47232.99051633
  -Hartree energ DENC   =    -54205.53959471
  -exchange      EXHF   =         0.00000000
  -V(xc)+E(xc)   XCENC  =       658.02033411
  PAW double counting   =    148546.12681398  -148404.67167831
  entropy T*S    EENTRO =        -0.00000000
  eigenvalues    EBANDS =     -2767.03862587
  atomic energy  EATOM  =      8369.52358910
  ---------------------------------------------------
  free energy    TOTEN  =      -522.63964342 eV

  energy without entropy =     -522.63964342  energy(sigma->0) =     -522.63964342


--------------------------------------------------------------------------------------------------------




--------------------------------------- Iteration      1(   9)  ---------------------------------------


    POTLOK:  cpu time    1.6789: real time    1.6884
    SETDIJ:  cpu time    0.2288: real time    0.2295
    TRIAL :  cpu time   19.6395: real time   19.7993
    CORREC:  cpu time    8.8731: real time    8.9369
    CHARGE:  cpu time    2.9607: real time    2.9816
    --------------------------------------------
      LOOP:  cpu time   33.4442: real time   33.7000

 eigenvalue-minimisations  :     0
 total energy-change (2. order) :-0.4518171E+00  (-0.1771765E+00)
 number of electron     216.0000000 magnetization 
 augmentation part       -0.5388678 magnetization 

 Free energy of the ion-electron system (eV)
  ---------------------------------------------------
  alpha Z        PSCENC =        47.94900195
  Ewald energy   TEWEN  =     47232.99051633
  -Hartree energ DENC   =    -54212.11525752
  -exchange      EXHF   =         0.00000000
  -V(xc)+E(xc)   XCENC  =       657.99597973
  PAW double counting   =    156339.24944183  -156197.72404374
  entropy T*S    EENTRO =        -0.00000000
  eigenvalues    EBANDS =     -2760.96068819
  atomic energy  EATOM  =      8369.52358910
  ---------------------------------------------------
  free energy    TOTEN  =      -523.09146050 eV

  energy without entropy =     -523.09146050  energy(sigma->0) =     -523.09146050


--------------------------------------------------------------------------------------------------------




--------------------------------------- Iteration      1(  10)  ---------------------------------------


    POTLOK:  cpu time    1.6792: real time    1.6885
    SETDIJ:  cpu time    0.2290: real time    0.2298
    TRIAL :  cpu time   19.6177: real time   19.7835
    CORREC:  cpu time    8.8678: real time    8.9265
    CHARGE:  cpu time    2.9569: real time    2.9775
    --------------------------------------------
      LOOP:  cpu time   33.4278: real time   33.6842

 eigenvalue-minimisations  :     0
 total energy-change (2. order) :-0.1770021E+00  (-0.7723130E-01)
 number of electron     216.0000000 magnetization 
 augmentation part       -0.5343312 magnetization 

 Free energy of the ion-electron system (eV)
  ---------------------------------------------------
  alpha Z        PSCENC =        47.94900195
  Ewald energy   TEWEN  =     47232.99051633
  -Hartree energ DENC   =    -54211.27075049
  -exchange      EXHF   =         0.00000000
  -V(xc)+E(xc)   XCENC  =       657.91914057
  PAW double counting   =    160052.29727905  -159910.72632381
  entropy T*S    EENTRO =        -0.00000000
  eigenvalues    EBANDS =     -2761.95091531
  atomic energy  EATOM  =      8369.52358910
  ---------------------------------------------------
  free energy    TOTEN  =      -523.26846261 eV

  energy without entropy =     -523.26846261  energy(sigma->0) =     -523.26846261


--------------------------------------------------------------------------------------------------------




--------------------------------------- Iteration      1(  11)  ---------------------------------------


    POTLOK:  cpu time    1.6776: real time    1.6874
    SETDIJ:  cpu time    0.2340: real time    0.2349
    TRIAL :  cpu time   19.6435: real time   19.7904
    CORREC:  cpu time    8.8709: real time    8.9322
    CHARGE:  cpu time    2.9432: real time    2.9640
    --------------------------------------------
      LOOP:  cpu time   33.4209: real time   33.6650

 eigenvalue-minimisations  :     0
 total energy-change (2. order) :-0.7711506E-01  (-0.2994327E-01)
 number of electron     216.0000000 magnetization 
 augmentation part       -0.5310584 magnetization 

 Free energy of the ion-electron system (eV)
  ---------------------------------------------------
  alpha Z        PSCENC =        47.94900195
  Ewald energy   TEWEN  =     47232.99051633
  -Hartree energ DENC   =    -54205.59332096
  -exchange      EXHF   =         0.00000000
  -V(xc)+E(xc)   XCENC  =       657.85475494
  PAW double counting   =    160688.76666163  -160547.21409368
  entropy T*S    EENTRO =        -0.00000000
  eigenvalues    EBANDS =     -2767.62268698
  atomic energy  EATOM  =      8369.52358910
  ---------------------------------------------------
  free energy    TOTEN  =      -523.34557767 eV

  energy without entropy =     -523.34557767  energy(sigma->0) =     -523.34557767


--------------------------------------------------------------------------------------------------------




--------------------------------------- Iteration      1(  12)  ---------------------------------------


    POTLOK:  cpu time    1.6788: real time    1.6881
    SETDIJ:  cpu time    0.2311: real time    0.2319
    TRIAL :  cpu time   19.6467: real time   19.7930
    CORREC:  cpu time    8.8771: real time    8.9404
    CHARGE:  cpu time    2.9323: real time    2.9642
    --------------------------------------------
      LOOP:  cpu time   33.4241: real time   33.6797

 eigenvalue-minimisations  :     0
 total energy-change (2. order) :-0.2990287E-01  (-0.9393264E-02)
 number of electron     216.0000000 magnetization 
 augmentation part       -0.5308918 magnetization 

 Free energy of the ion-electron system (eV)
  ---------------------------------------------------
  alpha Z        PSCENC =        47.94900195
  Ewald energy   TEWEN  =     47232.99051633
  -Hartree energ DENC   =    -54201.24810923
  -exchange      EXHF   =         0.00000000
  -V(xc)+E(xc)   XCENC  =       657.79075070
  PAW double counting   =    160096.46381556  -159954.93750924
  entropy T*S    EENTRO =        -0.00000000
  eigenvalues    EBANDS =     -2771.90753571
  atomic energy  EATOM  =      8369.52358910
  ---------------------------------------------------
  free energy    TOTEN  =      -523.37548054 eV

  energy without entropy =     -523.37548054  energy(sigma->0) =     -523.37548054


--------------------------------------------------------------------------------------------------------




--------------------------------------- Iteration      1(  13)  ---------------------------------------


    POTLOK:  cpu time    1.6798: real time    1.6898
    SETDIJ:  cpu time    0.2308: real time    0.2315
    TRIAL :  cpu time   19.6654: real time   19.8132
    CORREC:  cpu time    8.8875: real time    8.9562
    CHARGE:  cpu time    2.9461: real time    2.9720
    --------------------------------------------
      LOOP:  cpu time   33.4911: real time   33.7552

 eigenvalue-minimisations  :     0
 total energy-change (2. order) :-0.9375221E-02  (-0.2615335E-02)
 number of electron     216.0000000 magnetization 
 augmentation part       -0.5313511 magnetization 

 Free energy of the ion-electron system (eV)
  ---------------------------------------------------
  alpha Z        PSCENC =        47.94900195
  Ewald energy   TEWEN  =     47232.99051633
  -Hartree energ DENC   =    -54199.95074041
  -exchange      EXHF   =         0.00000000
  -V(xc)+E(xc)   XCENC  =       657.74171510
  PAW double counting   =    159427.10078756  -159285.57848017
  entropy T*S    EENTRO =        -0.00000000
  eigenvalues    EBANDS =     -2773.16124523
  atomic energy  EATOM  =      8369.52358910
  ---------------------------------------------------
  free energy    TOTEN  =      -523.38485576 eV

  energy without entropy =     -523.38485576  energy(sigma->0) =     -523.38485576


--------------------------------------------------------------------------------------------------------




--------------------------------------- Iteration      1(  14)  ---------------------------------------


    POTLOK:  cpu time    1.6796: real time    1.6909
    SETDIJ:  cpu time    0.2326: real time    0.2335
    TRIAL :  cpu time   19.6526: real time   19.8007
    CORREC:  cpu time    8.8839: real time    8.9426
    CHARGE:  cpu time    2.9492: real time    2.9708
    --------------------------------------------
      LOOP:  cpu time   33.4387: real time   33.6807

 eigenvalue-minimisations  :     0
 total energy-change (2. order) :-0.2605247E-02  (-0.7050361E-03)
 number of electron     216.0000000 magnetization 
 augmentation part       -0.5315724 magnetization 

 Free energy of the ion-electron system (eV)
  ---------------------------------------------------
  alpha Z        PSCENC =        47.94900195
  Ewald energy   TEWEN  =     47232.99051633
  -Hartree energ DENC   =    -54200.01912967
  -exchange      EXHF   =         0.00000000
  -V(xc)+E(xc)   XCENC  =       657.72959072
  PAW double counting   =    159041.44691232  -158899.92328505
  entropy T*S    EENTRO =        -0.00000000
  eigenvalues    EBANDS =     -2773.08465671
  atomic energy  EATOM  =      8369.52358910
  ---------------------------------------------------
  free energy    TOTEN  =      -523.38746101 eV

  energy without entropy =     -523.38746101  energy(sigma->0) =     -523.38746101


--------------------------------------------------------------------------------------------------------




--------------------------------------- Iteration      1(  15)  ---------------------------------------


    POTLOK:  cpu time    1.6779: real time    1.6877
    SETDIJ:  cpu time    0.2326: real time    0.2338
    TRIAL :  cpu time   19.6470: real time   19.7948
    CORREC:  cpu time    8.8809: real time    8.9459
    CHARGE:  cpu time    2.9585: real time    2.9797
    --------------------------------------------
      LOOP:  cpu time   33.4194: real time   33.6996

 eigenvalue-minimisations  :     0
 total energy-change (2. order) :-0.7008607E-03  (-0.1921259E-03)
 number of electron     216.0000000 magnetization 
 augmentation part       -0.5317337 magnetization 

 Free energy of the ion-electron system (eV)
  ---------------------------------------------------
  alpha Z        PSCENC =        47.94900195
  Ewald energy   TEWEN  =     47232.99051633
  -Hartree energ DENC   =    -54199.94550995
  -exchange      EXHF   =         0.00000000
  -V(xc)+E(xc)   XCENC  =       657.72490007
  PAW double counting   =    158852.40634736  -158710.88184666
  entropy T*S    EENTRO =        -0.00000000
  eigenvalues    EBANDS =     -2773.15516008
  atomic energy  EATOM  =      8369.52358910
  ---------------------------------------------------
  free energy    TOTEN  =      -523.38816187 eV

  energy without entropy =     -523.38816187  energy(sigma->0) =     -523.38816187


--------------------------------------------------------------------------------------------------------




--------------------------------------- Iteration      1(  16)  ---------------------------------------


    POTLOK:  cpu time    1.6791: real time    1.6907
    SETDIJ:  cpu time    0.2335: real time    0.2344
    TRIAL :  cpu time   19.6150: real time   19.7993
    CORREC:  cpu time    8.8601: real time    8.9321
    CHARGE:  cpu time    2.9419: real time    2.9652
    --------------------------------------------
      LOOP:  cpu time   33.3589: real time   33.6539

 eigenvalue-minimisations  :     0
 total energy-change (2. order) :-0.1904467E-03  (-0.5940329E-04)
 number of electron     216.0000000 magnetization 
 augmentation part       -0.5317932 magnetization 

 Free energy of the ion-electron system (eV)
  ---------------------------------------------------
  alpha Z        PSCENC =        47.94900195
  Ewald energy   TEWEN  =     47232.99051633
  -Hartree energ DENC   =    -54199.83975710
  -exchange      EXHF   =         0.00000000
  -V(xc)+E(xc)   XCENC  =       657.71882450
  PAW double counting   =    158747.27130959  -158605.74520213
  entropy T*S    EENTRO =        -0.00000000
  eigenvalues    EBANDS =     -2773.25663455
  atomic energy  EATOM  =      8369.52358910
  ---------------------------------------------------
  free energy    TOTEN  =      -523.38835232 eV

  energy without entropy =     -523.38835232  energy(sigma->0) =     -523.38835232


--------------------------------------------------------------------------------------------------------




--------------------------------------- Iteration      1(  17)  ---------------------------------------


    POTLOK:  cpu time    1.6771: real time    1.6886
    SETDIJ:  cpu time    0.2320: real time    0.2329
    TRIAL :  cpu time   19.6283: real time   19.7946
    CORREC:  cpu time    8.8780: real time    8.9491
    CHARGE:  cpu time    2.9727: real time    2.9984
    --------------------------------------------
      LOOP:  cpu time   33.4619: real time   33.7418

 eigenvalue-minimisations  :     0
 total energy-change (2. order) :-0.5841599E-04  (-0.2032957E-04)
 number of electron     216.0000000 magnetization 
 augmentation part       -0.5318176 magnetization 

 Free energy of the ion-electron system (eV)
  ---------------------------------------------------
  alpha Z        PSCENC =        47.94900195
  Ewald energy   TEWEN  =     47232.99051633
  -Hartree energ DENC   =    -54199.98310124
  -exchange      EXHF   =         0.00000000
  -V(xc)+E(xc)   XCENC  =       657.72409388
  PAW double counting   =    158682.72308165  -158541.19679018
  entropy T*S    EENTRO =        -0.00000000
  eigenvalues    EBANDS =     -2773.11880222
  atomic energy  EATOM  =      8369.52358910
  ---------------------------------------------------
  free energy    TOTEN  =      -523.38841073 eV

  energy without entropy =     -523.38841073  energy(sigma->0) =     -523.38841073


--------------------------------------------------------------------------------------------------------




--------------------------------------- Iteration      1(  18)  ---------------------------------------


    POTLOK:  cpu time    1.6761: real time    1.6880
    SETDIJ:  cpu time    0.2417: real time    0.2426
    TRIAL :  cpu time   19.6464: real time   19.8176
    CORREC:  cpu time    8.8760: real time    8.9474
    CHARGE:  cpu time    2.9525: real time    2.9745
    --------------------------------------------
      LOOP:  cpu time   33.4666: real time   33.7468

 eigenvalue-minimisations  :     0
 total energy-change (2. order) :-0.2034413E-04  (-0.6738061E-05)
 number of electron     216.0000000 magnetization 
 augmentation part       -0.5318361 magnetization 

 Free energy of the ion-electron system (eV)
  ---------------------------------------------------
  alpha Z        PSCENC =        47.94900195
  Ewald energy   TEWEN  =     47232.99051633
  -Hartree energ DENC   =    -54200.04856924
  -exchange      EXHF   =         0.00000000
  -V(xc)+E(xc)   XCENC  =       657.72632015
  PAW double counting   =    158656.54900733  -158515.02248057
  entropy T*S    EENTRO =        -0.00000000
  eigenvalues    EBANDS =     -2773.05581613
  atomic energy  EATOM  =      8369.52358910
  ---------------------------------------------------
  free energy    TOTEN  =      -523.38843108 eV

  energy without entropy =     -523.38843108  energy(sigma->0) =     -523.38843108


--------------------------------------------------------------------------------------------------------




--------------------------------------- Iteration      1(  19)  ---------------------------------------


    POTLOK:  cpu time    1.6801: real time    1.6900
    SETDIJ:  cpu time    0.2323: real time    0.2332
    TRIAL :  cpu time   19.6328: real time   19.7953
    CORREC:  cpu time    8.8786: real time    8.9410
    CHARGE:  cpu time    2.9595: real time    2.9804
    --------------------------------------------
      LOOP:  cpu time   33.4276: real time   33.6879

 eigenvalue-minimisations  :     0
 total energy-change (2. order) :-0.6936956E-05  (-0.2278500E-05)
 number of electron     216.0000000 magnetization 
 augmentation part       -0.5318393 magnetization 

 Free energy of the ion-electron system (eV)
  ---------------------------------------------------
  alpha Z        PSCENC =        47.94900195
  Ewald energy   TEWEN  =     47232.99051633
  -Hartree energ DENC   =    -54200.04654931
  -exchange      EXHF   =         0.00000000
  -V(xc)+E(xc)   XCENC  =       657.72593097
  PAW double counting   =    158655.81263744  -158514.28584169
  entropy T*S    EENTRO =        -0.00000000
  eigenvalues    EBANDS =     -2773.05772280
  atomic energy  EATOM  =      8369.52358910
  ---------------------------------------------------
  free energy    TOTEN  =      -523.38843801 eV

  energy without entropy =     -523.38843801  energy(sigma->0) =     -523.38843801


--------------------------------------------------------------------------------------------------------




--------------------------------------- Iteration      1(  20)  ---------------------------------------


    POTLOK:  cpu time    1.6819: real time    1.6919
    SETDIJ:  cpu time    0.2339: real time    0.2347
    TRIAL :  cpu time   19.6644: real time   19.8122
    CORREC:  cpu time    8.8853: real time    8.9452
    CHARGE:  cpu time    2.9444: real time    2.9674
    --------------------------------------------
      LOOP:  cpu time   33.4333: real time   33.6811

 eigenvalue-minimisations  :     0
 total energy-change (2. order) :-0.2331333E-05  (-0.7620844E-06)
 number of electron     216.0000000 magnetization 
 augmentation part       -0.5318400 magnetization 

 Free energy of the ion-electron system (eV)
  ---------------------------------------------------
  alpha Z        PSCENC =        47.94900195
  Ewald energy   TEWEN  =     47232.99051633
  -Hartree energ DENC   =    -54200.06338430
  -exchange      EXHF   =         0.00000000
  -V(xc)+E(xc)   XCENC  =       657.72657079
  PAW double counting   =    158662.23523858  -158520.70846236
  entropy T*S    EENTRO =        -0.00000000
  eigenvalues    EBANDS =     -2773.04151044
  atomic energy  EATOM  =      8369.52358910
  ---------------------------------------------------
  free energy    TOTEN  =      -523.38844035 eV

  energy without entropy =     -523.38844035  energy(sigma->0) =     -523.38844035


--------------------------------------------------------------------------------------------------------




--------------------------------------- Iteration      1(  21)  ---------------------------------------


    POTLOK:  cpu time    1.6797: real time    1.6896
    SETDIJ:  cpu time    0.2315: real time    0.2323
    TRIAL :  cpu time   19.6421: real time   19.8022
    CORREC:  cpu time    8.8731: real time    8.9343
    CHARGE:  cpu time    2.9515: real time    2.9767
    --------------------------------------------
      LOOP:  cpu time   33.4559: real time   33.7169

 eigenvalue-minimisations  :     0
 total energy-change (2. order) :-0.7509661E-06  (-0.2853640E-06)
 number of electron     216.0000000 magnetization 
 augmentation part       -0.5318366 magnetization 

 Free energy of the ion-electron system (eV)
  ---------------------------------------------------
  alpha Z        PSCENC =        47.94900195
  Ewald energy   TEWEN  =     47232.99051633
  -Hartree energ DENC   =    -54200.07194324
  -exchange      EXHF   =         0.00000000
  -V(xc)+E(xc)   XCENC  =       657.72675191
  PAW double counting   =    158668.28730861  -158526.76054695
  entropy T*S    EENTRO =        -0.00000000
  eigenvalues    EBANDS =     -2773.03311881
  atomic energy  EATOM  =      8369.52358910
  ---------------------------------------------------
  free energy    TOTEN  =      -523.38844110 eV

  energy without entropy =     -523.38844110  energy(sigma->0) =     -523.38844110


--------------------------------------------------------------------------------------------------------




--------------------------------------- Iteration      1(  22)  ---------------------------------------


    POTLOK:  cpu time    1.6785: real time    1.6882
    SETDIJ:  cpu time    0.2388: real time    0.2397
    TRIAL :  cpu time   19.6506: real time   19.8041
    CORREC:  cpu time    8.8644: real time    8.9259
    CHARGE:  cpu time    2.9492: real time    2.9726
    --------------------------------------------
      LOOP:  cpu time   33.4163: real time   33.7014

 eigenvalue-minimisations  :     0
 total energy-change (2. order) :-0.2509041E-06  (-0.1809494E-06)
 number of electron     216.0000000 magnetization 
 augmentation part       -0.5318290 magnetization 

 Free energy of the ion-electron system (eV)
  ---------------------------------------------------
  alpha Z        PSCENC =        47.94900195
  Ewald energy   TEWEN  =     47232.99051633
  -Hartree energ DENC   =    -54200.07162704
  -exchange      EXHF   =         0.00000000
  -V(xc)+E(xc)   XCENC  =       657.72668820
  PAW double counting   =    158672.32960209  -158530.80286781
  entropy T*S    EENTRO =        -0.00000000
  eigenvalues    EBANDS =     -2773.03334418
  atomic energy  EATOM  =      8369.52358910
  ---------------------------------------------------
  free energy    TOTEN  =      -523.38844135 eV

  energy without entropy =     -523.38844135  energy(sigma->0) =     -523.38844135


--------------------------------------------------------------------------------------------------------




--------------------------------------- Iteration      1(  23)  ---------------------------------------


    POTLOK:  cpu time    1.6786: real time    1.6895
    SETDIJ:  cpu time    0.2334: real time    0.2342
    TRIAL :  cpu time   19.6594: real time   19.8182
    CORREC:  cpu time    8.8683: real time    8.9425
    EDDIAG:  cpu time    4.0640: real time    4.0969
    CHARGE:  cpu time    2.9518: real time    2.9721
    --------------------------------------------
      LOOP:  cpu time   37.5083: real time   37.8106

 eigenvalue-minimisations  :     0
 total energy-change (2. order) :-0.7543713E-07  (-0.9922110E-07)
 number of electron     216.0000000 magnetization 
 augmentation part       -0.5318281 magnetization 

 Free energy of the ion-electron system (eV)
  ---------------------------------------------------
  alpha Z        PSCENC =        47.94900195
  Ewald energy   TEWEN  =     47232.99051633
  -Hartree energ DENC   =    -54200.07082931
  -exchange      EXHF   =         0.00000000
  -V(xc)+E(xc)   XCENC  =       657.72674266
  PAW double counting   =    158675.63912580  -158534.11246470
  entropy T*S    EENTRO =        -0.00000000
  eigenvalues    EBANDS =     -2773.03412325
  atomic energy  EATOM  =      8369.52358910
  ---------------------------------------------------
  free energy    TOTEN  =      -523.38844142 eV

  energy without entropy =     -523.38844142  energy(sigma->0) =     -523.38844142


--------------------------------------------------------------------------------------------------------


  average scaling for gradient   0.9364


 average (electrostatic) potential at core
  the test charge radii are     0.5770  0.5955
  (the norm of the test charge is              1.0000)
       1 -87.9831       2 -87.9787       3 -87.9892       4 -87.9980       5 -87.9752
       6 -87.9722       7 -87.9855       8 -87.9718       9 -87.9757      10 -87.9816
      11 -87.9745      12 -87.9782      13 -87.9799      14 -87.9746      15 -87.9720
      16 -87.9724      17 -87.9778      18 -87.9798      19 -87.9822      20 -87.9777
      21 -87.9687      22 -87.9701      23 -87.9991      24 -87.9976      25 -87.9737
      26 -87.9758      27 -87.9766      28 -87.9861      29 -87.9718      30 -87.9736
      31 -87.9940      32 -87.9852      33 -87.9793      34 -87.9753      35 -87.9739
      36 -87.9765      37 -87.9785      38 -87.9813      39 -87.9815      40 -87.9799
      41 -87.9804      42 -87.9832      43 -87.9773      44 -87.9830      45 -87.9733
      46 -87.9723      47 -87.9775      48 -87.9750      49 -87.9804      50 -87.9785
      51 -91.8584      52-124.2390      53-124.2414
 
 
 
 E-fermi :  -4.3915     XC(G=0):  -1.8540     alpha+bet : -1.6890

 Fermi energy:        -4.3914671237

 k-point     1 :       0.0000    0.0000    0.0000
  band No.  band energies     occupation 
      1     -29.1331      2.00000
      2     -28.0262      2.00000
      3     -23.6856      2.00000
      4     -22.7002      2.00000
      5     -22.6960      2.00000
      6     -22.6904      2.00000
      7     -22.6903      2.00000
      8     -22.6877      2.00000
      9     -22.6864      2.00000
     10     -20.7493      2.00000
     11     -20.7486      2.00000
     12     -20.7447      2.00000
     13     -20.7443      2.00000
     14     -20.7430      2.00000
     15     -20.7429      2.00000
     16     -19.8051      2.00000
     17     -19.8042      2.00000
     18     -19.8032      2.00000
     19     -19.8013      2.00000
     20     -19.8010      2.00000
     21     -19.8007      2.00000
     22     -17.5652      2.00000
     23     -17.5643      2.00000
     24     -17.5625      2.00000
     25     -17.5620      2.00000
     26     -17.5586      2.00000
     27     -17.5583      2.00000
     28     -16.3964      2.00000
     29     -16.3959      2.00000
     30     -16.3930      2.00000
     31     -16.3928      2.00000
     32     -16.3922      2.00000
     33     -16.3918      2.00000
     34     -14.9882      2.00000
     35     -14.9880      2.00000
     36     -14.9877      2.00000
     37     -14.9864      2.00000
     38     -14.9863      2.00000
     39     -14.9855      2.00000
     40     -13.2024      2.00000
     41     -12.4964      2.00000
     42     -12.4963      2.00000
     43     -12.4944      2.00000
     44     -12.4943      2.00000
     45     -12.4941      2.00000
     46     -12.4938      2.00000
     47     -12.2903      2.00000
     48     -12.2899      2.00000
     49     -12.2879      2.00000
     50     -12.2877      2.00000
     51     -12.2851      2.00000
     52     -12.2848      2.00000
     53     -11.8599      2.00000
     54     -11.7021      2.00000
     55     -11.6599      2.00000
     56     -10.9614      2.00000
     57     -10.8252      2.00000
     58     -10.8251      2.00000
     59     -10.8247      2.00000
     60     -10.8244      2.00000
     61     -10.8233      2.00000
     62     -10.8231      2.00000
     63      -9.8065      2.00000
     64      -9.7996      2.00000
     65      -9.7994      2.00000
     66      -9.7951      2.00000
     67      -9.7938      2.00000
     68      -9.7887      2.00000
     69      -9.4971      2.00000
     70      -9.4940      2.00000
     71      -9.4934      2.00000
     72      -9.4919      2.00000
     73      -9.4915      2.00000
     74      -9.4904      2.00000
     75      -9.4883      2.00000
     76      -9.4877      2.00000
     77      -9.4873      2.00000
     78      -9.4852      2.00000
     79      -9.4849      2.00000
     80      -9.4844      2.00000
     81      -8.0558      2.00000
     82      -8.0275      2.00000
     83      -7.7491      2.00000
     84      -7.7489      2.00000
     85      -7.7488      2.00000
     86      -7.7473      2.00000
     87      -7.7442      2.00000
     88      -7.7440      2.00000
     89      -7.5604      2.00000
     90      -7.5590      2.00000
     91      -7.5496      2.00000
     92      -7.5491      2.00000
     93      -7.5477      2.00000
     94      -7.5178      2.00000
     95      -6.6154      2.00000
     96      -6.6126      2.00000
     97      -6.6088      2.00000
     98      -6.6044      2.00000
     99      -6.6032      2.00000
    100      -6.5940      2.00000
    101      -6.1771      2.00000
    102      -6.1747      2.00000
    103      -4.5161      2.00000
    104      -4.5131      2.00000
    105      -4.5099      2.00000
    106      -4.5085      2.00000
    107      -4.5034      2.00000
    108      -4.5029      2.00000
    109      -1.5245      0.00000
    110      -1.5235      0.00000
    111      -1.5149      0.00000
    112      -1.5138      0.00000
    113      -1.5117      0.00000
    114      -1.5107      0.00000
    115       0.4648      0.00000
    116       0.4681      0.00000
    117       0.4711      0.00000
    118       0.4782      0.00000
    119       0.4793      0.00000
    120       0.4815      0.00000
    121       0.5954      0.00000
    122       1.1850      0.00000
    123       1.1868      0.00000
    124       1.2155      0.00000
    125       1.5012      0.00000
    126       1.6885      0.00000
    127       1.9902      0.00000
    128       2.0446      0.00000
    129       2.0545      0.00000
    130       2.0580      0.00000
    131       2.1058      0.00000
    132       2.1264      0.00000
    133       2.3293      0.00000
    134       2.3367      0.00000
    135       2.3388      0.00000
    136       2.3455      0.00000
    137       2.3471      0.00000
    138       2.3478      0.00000
    139       2.3515      0.00000
    140       2.5075      0.00000
    141       2.6579      0.00000
    142       2.7336      0.00000
    143       2.7428      0.00000
    144       2.7482      0.00000
    145       2.7700      0.00000
    146       2.8258      0.00000
    147       2.8381      0.00000
    148       2.8452      0.00000
    149       2.8831      0.00000
    150       2.9007      0.00000
    151       3.0170      0.00000
    152       3.4950      0.00000
    153       3.5693      0.00000
    154       3.6576      0.00000
    155       3.7519      0.00000
    156       3.9001      0.00000
    157       4.0625      0.00000
    158       4.3066      0.00000
    159       4.3682      0.00000
    160       4.4956      0.00000
    161       4.7257      0.00000
    162       4.8662      0.00000
    163       4.8665      0.00000
    164       4.8722      0.00000
    165       4.8739      0.00000
    166       4.8742      0.00000
    167       4.8774      0.00000
    168       5.1080      0.00000


--------------------------------------------------------------------------------------------------------


 soft charge-density along one line, spin component           1
         0         1         2         3         4         5         6         7         8         9
 total charge-density along one line
 
 pseudopotential strength for first ion, spin component:           1
 12.639  21.267  -0.000   0.000   0.000  -0.000   0.000   0.000
 21.267  35.784  -0.000   0.000   0.000  -0.000   0.000   0.000
 -0.000  -0.000  -3.235  -0.000   0.000  -5.794   0.000   0.000
  0.000   0.000  -0.000  -3.235  -0.000   0.000  -5.793  -0.000
  0.000   0.000   0.000  -0.000  -3.235   0.000  -0.000  -5.794
 -0.000  -0.000  -5.794   0.000   0.000 -10.354   0.000   0.000
  0.000   0.000   0.000  -5.793  -0.000   0.000 -10.353  -0.000
  0.000   0.000   0.000  -0.000  -5.794   0.000  -0.000 -10.354
 total augmentation occupancy for first ion, spin component:           1
 10.264  -3.894  -0.001  -0.002   0.001   0.000   0.001  -0.000
 -3.894   1.507   0.000   0.001  -0.000  -0.000  -0.000   0.000
 -0.001   0.000   8.468  -0.009   0.000  -3.024   0.004  -0.000
 -0.002   0.001  -0.009   4.015  -0.000   0.004  -1.207   0.000
  0.001  -0.000   0.000  -0.000   8.468  -0.000   0.000  -3.024
  0.000  -0.000  -3.024   0.004  -0.000   1.092  -0.001   0.000
  0.001  -0.000   0.004  -1.207   0.000  -0.001   0.368   0.000
 -0.000   0.000  -0.000   0.000  -3.024   0.000   0.000   1.092


------------------------ aborting loop because EDIFF is reached ----------------------------------------


    FORLOC:  cpu time    0.1429: real time    0.1439
    FORNL :  cpu time    3.8286: real time    3.8584
    FORCOR:  cpu time    1.6154: real time    1.6245
    OFIELD:  cpu time    0.0029: real time    0.0029

 VOLUME and BASIS-vectors are now :
 -----------------------------------------------------------------------------
  energy-cutoff  :     1000.00
  volume of cell :     3288.85
      direct lattice vectors                 reciprocal lattice vectors
    12.325000000  0.000000000  0.000000000     0.081135903  0.046843835  0.000000000
    -6.162500000 10.673763102  0.000000000     0.000000000  0.093687670  0.000000000
     0.000000000  0.000000000 25.000000000     0.000000000  0.000000000  0.040000000

  length of vectors
    12.325000000 12.325000000 25.000000000     0.093687670  0.093687670  0.040000000


 FORCES acting on ions:
    Electron-Ion                     Ewald-Force                    Non-Local-Force
 -----------------------------------------------------------------------------------------------
   0.103E+02 0.901E+01 0.257E+02   -.103E+02 -.901E+01 -.257E+02   0.140E-01 -.470E-02 0.985E-02
   0.167E+02 0.823E+01 0.329E+02   -.167E+02 -.822E+01 -.329E+02   0.206E-01 -.116E-01 -.101E-01
   0.812E+01 0.209E+02 0.402E+02   -.812E+01 -.209E+02 -.402E+02   -.264E-02 0.435E-01 0.276E-01
   0.126E+02 0.185E+02 0.621E+02   -.127E+02 -.185E+02 -.622E+02   0.487E-01 0.199E-01 0.794E-01
   0.112E+02 0.264E+01 0.258E+02   -.112E+02 -.263E+01 -.257E+02   0.436E-02 -.163E-01 -.689E-02
   0.117E+02 -.202E+01 0.263E+02   -.117E+02 0.203E+01 -.263E+02   -.175E-01 -.275E-02 -.166E-01
   0.219E+02 0.877E+01 0.539E+02   -.219E+02 -.872E+01 -.539E+02   0.500E-01 -.553E-01 -.220E-02
   0.215E+02 -.734E+01 0.570E+02   -.215E+02 0.737E+01 -.569E+02   0.958E-02 -.281E-01 -.764E-01
   -.908E+01 0.192E+02 0.410E+02   0.911E+01 -.192E+02 -.410E+02   -.198E-01 -.439E-02 -.335E-01
   -.162E+02 0.138E+02 0.602E+02   0.163E+02 -.139E+02 -.601E+02   -.700E-01 0.411E-01 -.455E-01
   0.276E+01 -.246E+01 0.211E+02   -.274E+01 0.245E+01 -.211E+02   -.409E-02 0.276E-02 -.598E-02
   0.221E+01 -.180E+01 0.197E+02   -.220E+01 0.180E+01 -.197E+02   -.153E-01 0.656E-02 0.170E-02
   0.835E+01 -.196E+02 0.645E+02   -.843E+01 0.196E+02 -.644E+02   0.823E-01 -.274E-01 -.533E-01
   0.394E+01 -.210E+02 0.410E+02   -.397E+01 0.210E+02 -.409E+02   0.249E-01 -.123E-02 -.375E-01
   -.997E+01 0.626E+01 0.252E+02   0.996E+01 -.626E+01 -.252E+02   0.140E-01 -.746E-02 -.868E-02
   -.147E+02 0.416E+01 0.291E+02   0.147E+02 -.417E+01 -.291E+02   -.300E-02 0.116E-01 -.262E-01
   -.151E+01 -.619E+00 0.190E+02   0.152E+01 0.616E+00 -.190E+02   -.612E-02 0.125E-02 0.982E-03
   0.825E+00 0.555E+01 0.202E+02   -.819E+00 -.555E+01 -.202E+02   -.873E-02 0.416E-02 0.881E-02
   -.301E+01 -.176E+02 0.316E+02   0.299E+01 0.176E+02 -.316E+02   0.248E-01 -.718E-02 0.370E-02
   -.131E+01 -.859E+01 0.222E+02   0.130E+01 0.860E+01 -.222E+02   0.625E-02 -.599E-02 -.241E-02
   0.172E+02 -.751E+01 0.355E+02   -.172E+02 0.751E+01 -.354E+02   -.331E-02 -.668E-02 -.492E-01
   0.103E+02 -.889E+01 0.281E+02   -.103E+02 0.888E+01 -.281E+02   -.126E-01 0.146E-01 -.205E-01
   -.413E+01 0.903E+01 0.779E+02   0.418E+01 -.907E+01 -.780E+02   -.553E-01 0.459E-01 0.895E-01
   -.696E+01 -.143E+02 0.740E+02   0.692E+01 0.144E+02 -.741E+02   0.382E-01 -.591E-01 0.815E-01
   0.483E+01 -.212E+01 0.212E+02   -.481E+01 0.211E+01 -.212E+02   -.840E-02 0.162E-02 -.103E-01
   0.909E+00 0.432E+01 0.214E+02   -.901E+00 -.433E+01 -.214E+02   -.130E-01 0.644E-02 -.116E-02
   -.220E+02 0.262E+01 0.451E+02   0.220E+02 -.265E+01 -.451E+02   -.495E-02 0.262E-01 -.342E-01
   -.202E+02 -.858E+01 0.409E+02   0.203E+02 0.855E+01 -.410E+02   -.363E-01 0.292E-01 0.102E-01
   0.628E+01 -.128E+02 0.294E+02   -.629E+01 0.128E+02 -.294E+02   0.120E-01 0.750E-02 -.247E-01
   0.584E+00 -.479E+01 0.226E+02   -.594E+00 0.478E+01 -.225E+02   0.117E-02 0.817E-02 -.101E-01
   -.163E+02 -.175E+02 0.502E+02   0.163E+02 0.176E+02 -.503E+02   -.431E-01 -.269E-01 0.485E-01
   -.941E+01 -.172E+02 0.337E+02   0.942E+01 0.172E+02 -.337E+02   0.312E-03 -.252E-01 0.163E-01
   0.571E+00 0.234E+01 0.196E+02   -.578E+00 -.233E+01 -.196E+02   0.120E-01 -.840E-02 0.391E-02
   0.161E+01 0.236E+01 0.210E+02   -.162E+01 -.235E+01 -.210E+02   0.547E-03 -.224E-02 -.639E-02
   -.696E+01 0.883E+00 0.229E+02   0.696E+01 -.890E+00 -.229E+02   0.922E-02 0.152E-02 -.304E-02
   -.600E+01 -.240E+01 0.223E+02   0.600E+01 0.240E+01 -.223E+02   -.110E-01 0.824E-02 -.317E-02
   -.122E+02 -.634E+01 0.262E+02   0.122E+02 0.634E+01 -.262E+02   -.156E-01 0.398E-02 -.210E-03
   -.707E+01 -.573E+01 0.220E+02   0.708E+01 0.573E+01 -.220E+02   -.110E-01 0.309E-02 0.992E-02
   -.663E+01 -.866E+01 0.235E+02   0.664E+01 0.867E+01 -.235E+02   -.111E-01 -.659E-02 0.733E-02
   -.978E+00 -.207E+01 0.201E+02   0.976E+00 0.207E+01 -.201E+02   0.277E-02 -.208E-02 0.850E-02
   0.249E+01 0.598E+01 0.210E+02   -.249E+01 -.599E+01 -.210E+02   -.471E-02 0.920E-02 0.814E-02
   0.824E+01 0.129E+02 0.272E+02   -.825E+01 -.129E+02 -.273E+02   0.107E-01 0.106E-01 0.134E-01
   0.662E+00 0.106E+02 0.233E+02   -.651E+00 -.106E+02 -.233E+02   -.841E-02 0.861E-02 -.196E-02
   0.705E-01 0.196E+02 0.346E+02   -.417E-01 -.196E+02 -.346E+02   -.322E-01 0.119E-01 0.575E-02
   -.201E+01 0.400E+01 0.225E+02   0.202E+01 -.399E+01 -.225E+02   0.127E-02 -.697E-02 -.743E-02
   -.845E+01 0.107E+02 0.279E+02   0.845E+01 -.107E+02 -.279E+02   -.111E-01 -.107E-02 -.207E-01
   -.147E+01 -.410E+01 0.209E+02   0.146E+01 0.410E+01 -.209E+02   0.143E-01 -.250E-02 0.109E-02
   -.380E+01 0.154E+01 0.200E+02   0.378E+01 -.153E+01 -.200E+02   0.710E-02 -.308E-03 -.873E-02
   0.304E+00 -.255E+01 0.198E+02   -.307E+00 0.255E+01 -.198E+02   0.835E-02 -.394E-02 0.601E-02
   0.402E+01 0.295E+01 0.200E+02   -.403E+01 -.294E+01 -.200E+02   0.643E-02 0.207E-02 0.316E-02
   0.129E+00 -.911E-01 -.402E+03   -.117E+00 0.838E-01 0.402E+03   -.977E-02 0.545E-02 -.450E-01
   -.228E+03 0.155E+03 -.617E+03   0.279E+03 -.190E+03 0.620E+03   -.522E+02 0.356E+02 -.334E+01
   0.228E+03 -.155E+03 -.594E+03   -.279E+03 0.190E+03 0.591E+03   0.522E+02 -.356E+02 0.331E+01
 -----------------------------------------------------------------------------------------------
   0.258E-01 -.159E-02 0.155E+00   0.114E-12 -.853E-13 0.568E-12   -.259E-01 0.889E-03 -.151E+00
 
 
 POSITION                                       TOTAL-FORCE (eV/Angst)
 -----------------------------------------------------------------------------------
     11.98348      0.00342      0.01417         0.002258     -0.000087     -0.002074
     -0.34154      1.42665      0.01100        -0.001443      0.000605     -0.001835
      2.12355      0.00315      0.01249         0.000602     -0.005114     -0.000767
      2.12326      1.42653      0.00641        -0.001048      0.000153      0.007749
     10.75099      2.13819      0.01213         0.001017     -0.004221      0.000547
     -1.57382      3.56123      0.01110        -0.005523      0.006268     -0.001000
      0.89078      2.13854      0.00548        -0.002933     -0.001246      0.004611
      0.89099      3.56147      0.00181        -0.009749      0.005368      0.002784
      4.58864      0.00346      0.01135         0.006342     -0.004273     -0.001477
      4.58894      1.42623      0.00646        -0.002103      0.000736      0.002510
      9.51854      4.27281      0.01369         0.007954     -0.006406     -0.000059
     -2.80632      5.69591      0.01434        -0.008387      0.004378      0.000802
      2.12300      4.27302      0.00000        -0.000116      0.005682      0.003898
      2.12335      5.69594      0.00581        -0.003232     -0.001919      0.000219
      7.05344      0.00333      0.01399         0.006246     -0.003279      0.000104
      7.05353      1.42635      0.01368        -0.003896      0.004482     -0.002640
      8.28610      6.40752      0.01601         0.003835     -0.001752     -0.000958
     -4.03885      7.83070      0.01636        -0.002521      0.002630     -0.000634
      3.35586      6.40753      0.01007         0.002460      0.000685     -0.000723
      3.35599      7.83072      0.01320        -0.002717      0.000282     -0.000479
     -0.34146      4.27290      0.00723         0.006823     -0.005147     -0.001578
     -0.34138      5.69591      0.00946        -0.007261      0.003587      0.000552
      3.35624      2.13791      0.00222         0.002595     -0.000779      0.011862
      3.35573      3.56155      0.00139         0.000318      0.000446      0.012298
     -1.57395      6.40758      0.01311         0.009814     -0.003976     -0.001018
     -1.57385      7.83068      0.01438        -0.005281      0.004361     -0.000130
      5.82093      2.13784      0.01033         0.007334     -0.003873     -0.001790
      5.82114      3.56097      0.01156        -0.000436      0.001377      0.000161
      0.89092      6.40755      0.00907         0.003525      0.000161     -0.000240
      0.89106      7.83068      0.01235        -0.008568      0.000490     -0.000034
      4.58871      4.27293      0.00850         0.001458     -0.001898      0.001510
      4.58852      5.69606      0.01149         0.001713      0.007379     -0.002358
      9.51845      0.00337      0.01490         0.005732     -0.005788      0.000037
      9.51855      1.42644      0.01438        -0.004639      0.008626     -0.000790
      8.28593      2.13803      0.01453         0.003791     -0.005446      0.000266
      8.28613      3.56115      0.01464        -0.004862      0.001694     -0.000158
      7.05356      4.27269      0.01457         0.003749     -0.000222     -0.000545
      7.05362      5.69588      0.01553        -0.002591      0.000404     -0.000814
      5.82112      6.40755      0.01489        -0.001498      0.001902     -0.000851
      5.82102      7.83073      0.01579         0.001592      0.001550     -0.000798
      7.05363      8.54227      0.01631        -0.003216     -0.000390      0.000588
     -5.27149      9.96549      0.01495        -0.001650     -0.002918     -0.003231
     -2.80638      8.54234      0.01558         0.002744     -0.001507     -0.001419
     -2.80627      9.96553      0.01362        -0.003219     -0.000003     -0.002385
     -0.34149      8.54239      0.01378         0.006242     -0.001885     -0.000021
     -0.34138      9.96550      0.01354        -0.006258      0.002759     -0.000304
      2.12343      8.54232      0.01336         0.006493     -0.001547      0.000796
      2.12354      9.96544      0.01469        -0.007873      0.004727     -0.002420
      4.58846      8.54235      0.01505         0.004680     -0.003924      0.000676
      4.58853      9.96550      0.01517        -0.003163      0.003624      0.000121
      3.04930      2.68154      3.33710         0.002035     -0.001930     -0.020102
      4.02070      2.02068      3.40152        -1.399527      0.957036     -0.090734
      2.07767      3.34267      3.27764         1.402357     -0.961863      0.092278
 -----------------------------------------------------------------------------------
    total drift:                               -0.000140     -0.000700      0.004883


--------------------------------------------------------------------------------------------------------



  FREE ENERGIE OF THE ION-ELECTRON SYSTEM (eV)
  ---------------------------------------------------
  free  energy   TOTEN  =      -523.38844142 eV

  energy  without entropy=     -523.38844142  energy(sigma->0) =     -523.38844142
 


--------------------------------------------------------------------------------------------------------


    POTLOK:  cpu time    1.8874: real time    1.8974


--------------------------------------------------------------------------------------------------------


 writing wavefunctions
     LOOP+:  cpu time  821.9531: real time  828.6374
    4ORBIT:  cpu time    0.0000: real time    0.0000

 total amount of memory used by VASP MPI-rank0   698619. kBytes
=======================================================================

   base      :      30000. kBytes
   nonl-proj :     230539. kBytes
   fftplans  :      40716. kBytes
   grid      :     363125. kBytes
   one-center:        162. kBytes
   wavefun   :      34077. kBytes
 
  
  
 General timing and accounting informations for this job:
 ========================================================
  
                  Total CPU time used (sec):      866.610
                            User time (sec):      842.405
                          System time (sec):       24.205
                         Elapsed time (sec):      874.724
  
                   Maximum memory used (kb):     1233428.
                   Average memory used (kb):          N/A
  
                          Minor page faults:       134374
                          Major page faults:           64
                 Voluntary context switches:         3548
