 vasp.6.2.1 16May21 (build Nov 06 2021 14:46:37) complex                        
  
 executed on             LinuxIFC date 2025.04.16  19:18:37
 running on  112 total cores
 distrk:  each k-point on   56 cores,    2 groups
 distr:  one band on NCORE=   1 cores,   56 groups


--------------------------------------------------------------------------------------------------------


 INCAR:
   ALGO = Conjugate
   KPAR = 2
   NCORE = 32
   ISMEAR = 0
   SIGMA = 0.01
   PREC = Accurate
   EDIFF = 1E-7
   ENCUT = 1000
   ISIF = 0
   METAGGA = R2SCAN
   LASPH = .TRUE.
   SYMPREC = 1E-7

 POTCAR:    PAW_PBE C_h 06Feb2004                 
 POTCAR:    PAW_PBE O_h 06Feb2004                 
 -----------------------------------------------------------------------------
|                                                                             |
|           W    W    AA    RRRRR   N    N  II  N    N   GGGG   !!!           |
|           W    W   A  A   R    R  NN   N  II  NN   N  G    G  !!!           |
|           W    W  A    A  R    R  N N  N  II  N N  N  G       !!!           |
|           W WW W  AAAAAA  RRRRR   N  N N  II  N  N N  G  GGG   !            |
|           WW  WW  A    A  R   R   N   NN  II  N   NN  G    G                |
|           W    W  A    A  R    R  N    N  II  N    N   GGGG   !!!           |
|                                                                             |
|     The value NCORE = 32 specified in the INCAR file was overwritten,       |
|     because it was not compatible with the 56 processes available:          |
|     NCORE = 1                                                               |
|     was used instead, please check that this makes sense for your           |
|     machine.                                                                |
|                                                                             |
 -----------------------------------------------------------------------------

 -----------------------------------------------------------------------------
|                                                                             |
|           W    W    AA    RRRRR   N    N  II  N    N   GGGG   !!!           |
|           W    W   A  A   R    R  NN   N  II  NN   N  G    G  !!!           |
|           W    W  A    A  R    R  N N  N  II  N N  N  G       !!!           |
|           W WW W  AAAAAA  RRRRR   N  N N  II  N  N N  G  GGG   !            |
|           WW  WW  A    A  R   R   N   NN  II  N   NN  G    G                |
|           W    W  A    A  R    R  N    N  II  N    N   GGGG   !!!           |
|                                                                             |
|     For optimal performance we recommend to set                             |
|       NCORE = 2 up to number-of-cores-per-socket                            |
|     NCORE specifies how many cores store one orbital (NPAR=cpu/NCORE).      |
|     This setting can greatly improve the performance of VASP for DFT.       |
|     The default, NCORE=1 might be grossly inefficient on modern             |
|     multi-core architectures or massively parallel machines. Do your        |
|     own testing! More info at https://www.vasp.at/wiki/index.php/NCORE      |
|     Unfortunately you need to use the default for GW and RPA                |
|     calculations (for HF NCORE is supported but not extensively tested      |
|     yet).                                                                   |
|                                                                             |
 -----------------------------------------------------------------------------

 POTCAR:    PAW_PBE C_h 06Feb2004                 
   VRHFIN =C: s2p2                                                                                  
   LEXCH  = PE                                                                                      
   EATOM  =   147.1560 eV,   10.8157 Ry                                                             
                                                                                                    
   TITEL  = PAW_PBE C_h 06Feb2004                                                                   
   LULTRA =        F    use ultrasoft PP ?                                                          
   IUNSCR =        1    unscreen: 0-lin 1-nonlin 2-no                                               
   RPACOR =    0.800    partial core radius                                                         
   POMASS =   12.011; ZVAL   =    4.000    mass and valenz                                          
   RCORE  =    1.100    outmost cutoff radius                                                       
   RWIGS  =    1.630; RWIGS  =    0.863    wigner-seitz radius (au A)                               
   ENMAX  =  700.000; ENMIN  =  500.000 eV                                                          
   ICORE  =        2    local potential                                                             
   LCOR   =        T    correct aug charges                                                         
   LPAW   =        T    paw PP                                                                      
   EAUG   =  946.768                                                                                
   DEXC   =    0.000                                                                                
   RMAX   =    1.128    core radius for proj-oper                                                   
   RAUG   =    1.300    factor for augmentation sphere                                              
   RDEP   =    1.162    radius for radial grids                                                     
   RDEPT  =    1.088    core radius for aug-charge                                                  
                                                                                                    
   Atomic configuration                                                                             
    4 entries                                                                                       
     n  l   j            E        occ.                                                              
     1  0  0.50      -273.3789   2.0000                                                             
     2  0  0.50       -13.7508   2.0000                                                             
     2  1  0.50        -5.2854   2.0000                                                             
     3  2  1.50        -5.4423   0.0000                                                             
   Description                                                                                      
     l       E           TYP  RCUT    TYP  RCUT                                                     
     0    -13.7508458     23  1.100                                                                 
     0     -8.2022199     23  1.100                                                                 
     1     -5.2854383     23  1.100                                                                 
     1      1.1560700     23  1.100                                                                 
     2     -5.4423304      7  1.100                                                                 
  local pseudopotential read in
  partial core-charges read in
  partial kinetic energy density read in
  atomic valenz-charges read in
  non local Contribution for L=           0  read in
    real space projection operators read in
  non local Contribution for L=           0  read in
    real space projection operators read in
  non local Contribution for L=           1  read in
    real space projection operators read in
  non local Contribution for L=           1  read in
    real space projection operators read in
    PAW grid and wavefunctions read in
 
   number of l-projection  operators is LMAX  =           4
   number of lm-projection operators is LMMAX =           8
 
 POTCAR:    PAW_PBE O_h 06Feb2004                 
   VRHFIN =O: s2p4                                                                                  
   LEXCH  = PE                                                                                      
   EATOM  =   432.3788 eV,   31.7789 Ry                                                             
                                                                                                    
   TITEL  = PAW_PBE O_h 06Feb2004                                                                   
   LULTRA =        F    use ultrasoft PP ?                                                          
   IUNSCR =        1    unscreen: 0-lin 1-nonlin 2-no                                               
   RPACOR =    0.800    partial core radius                                                         
   POMASS =   16.000; ZVAL   =    6.000    mass and valenz                                          
   RCORE  =    1.100    outmost cutoff radius                                                       
   RWIGS  =    1.400; RWIGS  =    0.741    wigner-seitz radius (au A)                               
   ENMAX  =  700.000; ENMIN  =  500.000 eV                                                          
   ICORE  =        2    local potential                                                             
   LCOR   =        T    correct aug charges                                                         
   LPAW   =        T    paw PP                                                                      
   EAUG   =  888.804                                                                                
   DEXC   =    0.000                                                                                
   RMAX   =    1.128    core radius for proj-oper                                                   
   RAUG   =    1.300    factor for augmentation sphere                                              
   RDEP   =    1.125    radius for radial grids                                                     
   RDEPT  =    1.088    core radius for aug-charge                                                  
                                                                                                    
   Atomic configuration                                                                             
    4 entries                                                                                       
     n  l   j            E        occ.                                                              
     1  0  0.50      -514.6923   2.0000                                                             
     2  0  0.50       -23.9615   2.0000                                                             
     2  1  0.50        -9.0305   4.0000                                                             
     3  2  1.50        -9.5241   0.0000                                                             
   Description                                                                                      
     l       E           TYP  RCUT    TYP  RCUT                                                     
     0    -23.9615319     23  1.100                                                                 
     0    -25.3221145     23  1.100                                                                 
     1     -9.0304911     23  1.100                                                                 
     1     -5.4802209     23  1.100                                                                 
     2     -9.5240782      7  1.100                                                                 
  local pseudopotential read in
  partial core-charges read in
  partial kinetic energy density read in
  atomic valenz-charges read in
  non local Contribution for L=           0  read in
    real space projection operators read in
  non local Contribution for L=           0  read in
    real space projection operators read in
  non local Contribution for L=           1  read in
    real space projection operators read in
  non local Contribution for L=           1  read in
    real space projection operators read in
    PAW grid and wavefunctions read in
 
   number of l-projection  operators is LMAX  =           4
   number of lm-projection operators is LMMAX =           8
 
 -----------------------------------------------------------------------------
|                                                                             |
|               ----> ADVICE to this user running VASP <----                  |
|                                                                             |
|     You have a (more or less) 'large supercell' and for larger cells it     |
|     might be more efficient to use real-space projection operators.         |
|     Therefore, try LREAL= Auto in the INCAR file.                           |
|     Mind: For very accurate calculation, you might also keep the            |
|     reciprocal projection scheme (i.e. LREAL=.FALSE.).                      |
|                                                                             |
 -----------------------------------------------------------------------------

  PAW_PBE C_h 06Feb2004                 :
 energy of atom  1       EATOM= -147.1560
 kinetic energy error for atom=    0.0031 (will be added to EATOM!!)
  PAW_PBE O_h 06Feb2004                 :
 energy of atom  2       EATOM= -432.3788
 kinetic energy error for atom=    0.0171 (will be added to EATOM!!)
 
 
 POSCAR:  C  O
  positions in cartesian coordinates
  No initial velocities read in

 METAGGA = R2SCA    LMAXTAU =  6    LMIXTAU =  F

 exchange correlation table for  LEXCH =        8
   RHO(1)=    0.500       N(1)  =     2000
   RHO(2)=  100.500       N(2)  =     4000
 


--------------------------------------------------------------------------------------------------------


 ion  position               nearest neighbor table
   1  0.972  0.000  0.001-  50 1.42   2 1.42  42 1.42
   2  0.039  0.134  0.000-   5 1.42   7 1.42   1 1.42
   3  0.172  0.000  0.000-  42 1.42  44 1.42   4 1.42
   4  0.239  0.134  0.000-   7 1.42   3 1.42  23 1.42
   5  0.972  0.200  0.000-   6 1.42   2 1.42  34 1.42
   6  0.039  0.334  0.000-   5 1.42  21 1.42  11 1.42
   7  0.172  0.200  0.000-   8 1.42   2 1.42   4 1.42
   8  0.239  0.334  0.000-  13 1.42   7 1.42  21 1.42
   9  0.372  0.000  0.000-  10 1.42  44 1.42  46 1.42
  10  0.439  0.134  0.000-  27 1.42   9 1.42  23 1.42
  11  0.972  0.400  0.001-  12 1.42  36 1.42   6 1.42
  12  0.039  0.534  0.001-  25 1.42  11 1.42  17 1.42
  13  0.372  0.400  0.000-   8 1.42  14 1.42  24 1.42
  14  0.439  0.534  0.000-  13 1.42  29 1.42  19 1.42
  15  0.572  0.000  0.001-  46 1.42  16 1.42  48 1.42
  16  0.639  0.134  0.001-  15 1.42  35 1.42  27 1.42
  17  0.972  0.600  0.001-  38 1.42  18 1.42  12 1.42
  18  0.039  0.734  0.001-  43 1.42  41 1.42  17 1.42
  19  0.572  0.600  0.000-  14 1.42  20 1.42  32 1.42
  20  0.639  0.734  0.001-  49 1.42  19 1.42  47 1.42
  21  0.172  0.400  0.000-  22 1.42   8 1.42   6 1.42
  22  0.239  0.534  0.000-  21 1.42  29 1.42  25 1.42
  23  0.372  0.200  0.000-  10 1.42   4 1.42  24 1.42
  24  0.439  0.334  0.000-  13 1.42  31 1.42  23 1.42
  25  0.172  0.600  0.001-  26 1.42  12 1.42  22 1.42
  26  0.239  0.734  0.001-  25 1.42  45 1.42  43 1.42
  27  0.572  0.200  0.000-  10 1.42  28 1.42  16 1.42
  28  0.639  0.334  0.000-  27 1.42  37 1.42  31 1.42
  29  0.372  0.600  0.000-  22 1.42  14 1.42  30 1.42
  30  0.439  0.734  0.000-  47 1.42  29 1.42  45 1.42
  31  0.572  0.400  0.000-  32 1.42  28 1.42  24 1.42
  32  0.639  0.534  0.000-  31 1.42  39 1.42  19 1.42
  33  0.772  0.000  0.001-  34 1.42  48 1.42  50 1.42
  34  0.839  0.134  0.001-  33 1.42   5 1.42  35 1.42
  35  0.772  0.200  0.001-  36 1.42  16 1.42  34 1.42
  36  0.839  0.334  0.001-  35 1.42  11 1.42  37 1.42
  37  0.772  0.400  0.001-  28 1.42  38 1.42  36 1.42
  38  0.839  0.534  0.001-  17 1.42  37 1.42  39 1.42
  39  0.772  0.600  0.001-  40 1.42  38 1.42  32 1.42
  40  0.839  0.734  0.001-  39 1.42  49 1.42  41 1.42
  41  0.972  0.800  0.001-  18 1.42  42 1.42  40 1.42
  42  0.039  0.934  0.001-   3 1.42  41 1.42   1 1.42
  43  0.172  0.800  0.001-  18 1.42  44 1.42  26 1.42
  44  0.239  0.934  0.001-   9 1.42  43 1.42   3 1.42
  45  0.372  0.800  0.001-  26 1.42  46 1.42  30 1.42
  46  0.439  0.934  0.001-  15 1.42  45 1.42   9 1.42
  47  0.572  0.800  0.001-  30 1.42  48 1.42  20 1.42
  48  0.639  0.934  0.001-  47 1.42  33 1.42  15 1.42
  49  0.772  0.800  0.001-  50 1.42  20 1.42  40 1.42
  50  0.839  0.934  0.001-  49 1.42   1 1.42  33 1.42
  51  0.373  0.251  0.168-  52 1.18  53 1.18
  52  0.421  0.189  0.171-  51 1.18
  53  0.325  0.313  0.166-  51 1.18
 
  LATTYP: Found a hexagonal cell.
 ALAT       =    12.3250000000
 C/A-ratio  =     2.0283975659
  
  Lattice vectors:
  
 A1 = (  12.3250000000,   0.0000000000,   0.0000000000)
 A2 = (  -6.1625000000,  10.6737631016,   0.0000000000)
 A3 = (   0.0000000000,   0.0000000000,  25.0000000000)


Analysis of symmetry for initial positions (statically):
=====================================================================
 Subroutine PRICEL returns:
 Original cell was already a primitive cell.
 

 Routine SETGRP: Setting up the symmetry group for a 
 hexagonal supercell.


 Subroutine GETGRP returns: Found  1 space group operations
 (whereof  1 operations were pure point group operations)
 out of a pool of 24 trial point group operations.


The static configuration has the point symmetry C_1 .


Analysis of symmetry for dynamics (positions and initial velocities):
=====================================================================
 Subroutine PRICEL returns:
 Original cell was already a primitive cell.
 

 Routine SETGRP: Setting up the symmetry group for a 
 hexagonal supercell.


 Subroutine GETGRP returns: Found  1 space group operations
 (whereof  1 operations were pure point group operations)
 out of a pool of 24 trial point group operations.


The dynamic configuration has the point symmetry C_1 .


 Subroutine INISYM returns: Found  1 space group operations
 (whereof  1 operations are pure point group operations),
 and found     1 'primitive' translations


----------------------------------------------------------------------------------------

                                     Primitive cell                                     

  volume of cell :    3288.8533

  direct lattice vectors                    reciprocal lattice vectors
    12.325000000  0.000000000  0.000000000     0.081135903  0.046843835  0.000000000
    -6.162500000 10.673763102  0.000000000     0.000000000  0.093687670  0.000000000
     0.000000000  0.000000000 25.000000000     0.000000000  0.000000000  0.040000000

  length of vectors
    12.325000000 12.325000000 25.000000000     0.093687670  0.093687670  0.040000000

  position of ions in fractional coordinates (direct lattice)
     0.972450841  0.000320818  0.000566711
     0.039118382  0.133659505  0.000440173
     0.172443627  0.000295449  0.000499628
     0.239096278  0.133647917  0.000256468
     0.972452058  0.200322012  0.000485219
     0.039128360  0.333643771  0.000444150
     0.172451764  0.200354552  0.000219167
     0.239124359  0.333665720  0.000072260
     0.372465565  0.000324403  0.000453913
     0.439137473  0.133619939  0.000258338
     0.972449824  0.400309362  0.000547611
     0.039124981  0.533636789  0.000573410
     0.372416176  0.400329481  0.000000000
     0.439099602  0.533638981  0.000232414
     0.572443676  0.000312125  0.000559580
     0.639110207  0.133631751  0.000547275
     0.972452703  0.600305653  0.000640289
     0.039124495  0.733640359  0.000654513
     0.572433471  0.600306242  0.000402895
     0.639111888  0.733641879  0.000527905
     0.172454630  0.400318228  0.000289045
     0.239120185  0.533636548  0.000378509
     0.372459750  0.200295993  0.000088997
     0.439107096  0.333673419  0.000055762
     0.172452155  0.600311506  0.000524340
     0.239123371  0.733638574  0.000575129
     0.572431082  0.200289171  0.000413296
     0.639112773  0.333618630  0.000462376
     0.372439808  0.600308022  0.000362844
     0.439116090  0.733637858  0.000494190
     0.572469358  0.400320504  0.000339918
     0.639119408  0.533650873  0.000459610
     0.772445723  0.000315427  0.000596161
     0.839116277  0.133640203  0.000575306
     0.772440513  0.200307432  0.000581033
     0.839120241  0.333635728  0.000585467
     0.772446320  0.400298367  0.000582978
     0.839118980  0.533633964  0.000621100
     0.772456143  0.600308173  0.000595712
     0.839115033  0.733643180  0.000631512
     0.972455313  0.800305582  0.000652233
     0.039114714  0.933643289  0.000598051
     0.172457971  0.800312211  0.000623372
     0.239134551  0.933647193  0.000544850
     0.372451396  0.800316674  0.000551399
     0.439124489  0.933644769  0.000541430
     0.572441101  0.800310054  0.000534535
     0.639115067  0.933638985  0.000587644
     0.772445098  0.800313187  0.000602062
     0.839116614  0.933644338  0.000606830
     0.373021009  0.251226878  0.168179283
     0.420879805  0.189313152  0.170756158
     0.325156981  0.313167186  0.165801088

  ion indices of the primitive-cell ions
   primitive index   ion index
                 1           1
                 2           2
                 3           3
                 4           4
                 5           5
                 6           6
                 7           7
                 8           8
                 9           9
                10          10
                11          11
                12          12
                13          13
                14          14
                15          15
                16          16
                17          17
                18          18
                19          19
                20          20
                21          21
                22          22
                23          23
                24          24
                25          25
                26          26
                27          27
                28          28
                29          29
                30          30
                31          31
                32          32
                33          33
                34          34
                35          35
                36          36
                37          37
                38          38
                39          39
                40          40
                41          41
                42          42
                43          43
                44          44
                45          45
                46          46
                47          47
                48          48
                49          49
                50          50
                51          51
                52          52
                53          53

----------------------------------------------------------------------------------------

 
 
 KPOINTS: auto                                    

Automatic generation of k-mesh.
 Grid dimensions read from file:
 generate k-points for:    1    1    1

 Generating k-lattice:

  Cartesian coordinates                     Fractional coordinates (reciprocal lattice)
     0.081135903  0.046843835  0.000000000     1.000000000 -0.000000000  0.000000000
     0.000000000  0.093687670  0.000000000     0.000000000  1.000000000  0.000000000
     0.000000000  0.000000000  0.040000000     0.000000000  0.000000000  1.000000000

  Length of vectors
     0.093687670  0.093687670  0.040000000

  Shift w.r.t. Gamma in fractional coordinates (k-lattice)
     0.000000000  0.000000000  0.000000000

 
 Subroutine IBZKPT returns following result:
 ===========================================
 
 Found      1 irreducible k-points:
 
 Following reciprocal coordinates:
            Coordinates               Weight
  0.000000  0.000000  0.000000      1.000000
 
 Following cartesian coordinates:
            Coordinates               Weight
  0.000000  0.000000  0.000000      1.000000
 


--------------------------------------------------------------------------------------------------------




 Dimension of arrays:
   k-points           NKPTS =      1   k-points in BZ     NKDIM =      1   number of bands    NBANDS=    168
   number of dos      NEDOS =    301   number of ions     NIONS =     53
   non local maximal  LDIM  =      4   non local SUM 2l+1 LMDIM =      8
   total plane-waves  NPLWV = ******
   max r-space proj   IRMAX =      1   max aug-charges    IRDMAX=  10008
   dimension x,y,z NGX =   128 NGY =  128 NGZ =  270
   dimension x,y,z NGXF=   256 NGYF=  256 NGZF=  540
   support grid    NGXF=   256 NGYF=  256 NGZF=  540
   ions per type =              51   2
   NGX,Y,Z   is equivalent  to a cutoff of  17.27, 17.27, 17.95 a.u.
   NGXF,Y,Z  is equivalent  to a cutoff of  34.53, 34.53, 35.91 a.u.

 SYSTEM =  unknown system                          
 POSCAR =   C  O                                   

 Startparameter for this run:
   NWRITE =      2    write-flag & timer
   PREC   = accura    normal or accurate (medium, high low for compatibility)
   ISTART =      0    job   : 0-new  1-cont  2-samecut
   ICHARG =      2    charge: 1-file 2-atom 10-const
   ISPIN  =      1    spin polarized calculation?
   LNONCOLLINEAR =      F non collinear calculations
   LSORBIT =      F    spin-orbit coupling
   INIWAV =      1    electr: 0-lowe 1-rand  2-diag
   LASPH  =      T    aspherical Exc in radial PAW
 Electronic Relaxation 1
   ENCUT  = 1000.0 eV  73.50 Ry    8.57 a.u.  31.78 31.78 64.46*2*pi/ulx,y,z
   ENINI  = 1000.0     initial cutoff
   ENAUG  =  946.8 eV  augmentation charge cutoff
   NELM   =     60;   NELMIN=  2; NELMDL= -5     # of ELM steps 
   EDIFF  = 0.1E-06   stopping-criterion for ELM
   LREAL  =      F    real-space projection
   NLSPLINE    = F    spline interpolate recip. space projectors
   LCOMPAT=      F    compatible to vasp.4.4
   GGA_COMPAT  = T    GGA compatible to vasp.4.4-vasp.4.6
   LMAXPAW     = -100 max onsite density
   LMAXMIX     =    2 max onsite mixed and CHGCAR
   VOSKOWN=      0    Vosko Wilk Nusair interpolation
   ROPT   =    0.00000   0.00000
 Ionic relaxation
   EDIFFG = 0.1E-05   stopping-criterion for IOM
   NSW    =      0    number of steps for IOM
   NBLOCK =      1;   KBLOCK =      1    inner block; outer block 
   IBRION =     -1    ionic relax: 0-MD 1-quasi-New 2-CG
   NFREE  =      0    steps in history (QN), initial steepest desc. (CG)
   ISIF   =      0    stress and relaxation
   IWAVPR =     10    prediction:  0-non 1-charg 2-wave 3-comb
   ISYM   =      2    0-nonsym 1-usesym 2-fastsym
   LCORR  =      T    Harris-Foulkes like correction to forces

   POTIM  = 0.5000    time-step for ionic-motion
   TEIN   =    0.0    initial temperature
   TEBEG  =    0.0;   TEEND  =   0.0 temperature during run
   SMASS  =  -3.00    Nose mass-parameter (am)
   estimated Nose-frequenzy (Omega)   =  0.10E-29 period in steps = 0.13E+47 mass=  -0.347E-26a.u.
   SCALEE = 1.0000    scale energy and forces
   NPACO  =    256;   APACO  = 16.0  distance and # of slots for P.C.
   PSTRESS=    0.0 pullay stress

  Mass of Ions in am
   POMASS =  12.01 16.00
  Ionic Valenz
   ZVAL   =   4.00  6.00
  Atomic Wigner-Seitz radii
   RWIGS  =  -1.00 -1.00
  virtual crystal weights 
   VCA    =   1.00  1.00
   NELECT =     216.0000    total number of electrons
   NUPDOWN=      -1.0000    fix difference up-down

 DOS related values:
   EMIN   =  10.00;   EMAX   =-10.00  energy-range for DOS
   EFERMI =   0.00
   ISMEAR =     0;   SIGMA  =   0.01  broadening in eV -4-tet -1-fermi 0-gaus

 Electronic relaxation 2 (details)
   IALGO  =     58    algorithm
   LDIAG  =      T    sub-space diagonalisation (order eigenvalues)
   LSUBROT=      F    optimize rotation matrix (better conditioning)
   TURBO    =      0    0=normal 1=particle mesh
   IRESTART =      0    0=no restart 2=restart with 2 vectors
   NREBOOT  =      0    no. of reboots
   NMIN     =      0    reboot dimension
   EREF     =   0.00    reference energy to select bands
   IMIX   =      4    mixing-type and parameters
     AMIX     =   0.40;   BMIX     =  1.00
     AMIX_MAG =   1.60;   BMIX_MAG =  1.00
     AMIN     =   0.10
     WC   =   100.;   INIMIX=   1;  MIXPRE=   1;  MAXMIX= -45

 Intra band minimization:
   WEIMIN = 0.0000     energy-eigenvalue tresh-hold
   EBREAK =  0.15E-09  absolut break condition
   DEPER  =   0.30     relativ break condition  

   TIME   =   0.40     timestep for ELM

  volume/ion in A,a.u.               =      62.05       418.76
  Fermi-wavevector in a.u.,A,eV,Ry     =   0.660508  1.248179  5.935820  0.436270
  Thomas-Fermi vector in A             =   1.732977
 
 Write flags
   LWAVE        =      T    write WAVECAR
   LDOWNSAMPLE  =      F    k-point downsampling of WAVECAR
   LCHARG       =      T    write CHGCAR
   LVTOT        =      F    write LOCPOT, total local potential
   LVHAR        =      F    write LOCPOT, Hartree potential only
   LELF         =      F    write electronic localiz. function (ELF)
   LORBIT       =      0    0 simple, 1 ext, 2 COOP (PROOUT), +10 PAW based schemes


 Dipole corrections
   LMONO  =      F    monopole corrections only (constant potential shift)
   LDIPOL =      F    correct potential (dipole corrections)
   IDIPOL =      0    1-x, 2-y, 3-z, 4-all directions 
   EPSILON=  1.0000000 bulk dielectric constant

 Exchange correlation treatment:
   GGA     =    --    GGA type
   LEXCH   =     8    internal setting for exchange type
   VOSKOWN=      0    Vosko Wilk Nusair interpolation
   LHFCALC =     F    Hartree Fock is set to
   LHFONE  =     F    Hartree Fock one center treatment
   AEXX    =    0.0000 exact exchange contribution

 Linear response parameters
   LEPSILON=     F    determine dielectric tensor
   LRPA    =     F    only Hartree local field effects (RPA)
   LNABLA  =     F    use nabla operator in PAW spheres
   LVEL    =     F    velocity operator in full k-point grid
   LINTERFAST=   F  fast interpolation
   KINTER  =     0    interpolate to denser k-point grid
   CSHIFT  =0.1000    complex shift for real part using Kramers Kronig
   OMEGAMAX=  -1.0    maximum frequency
   DEG_THRESHOLD= 0.2000000E-02 threshold for treating states as degnerate
   RTIME   =   -0.100 relaxation time in fs
  (WPLASMAI=    0.000 imaginary part of plasma frequency in eV, 0.658/RTIME)
   DFIELD  = 0.0000000 0.0000000 0.0000000 field for delta impulse in time
 
 Orbital magnetization related:
   ORBITALMAG=     F  switch on orbital magnetization
   LCHIMAG   =     F  perturbation theory with respect to B field
   DQ        =  0.001000  dq finite difference perturbation B field
   LLRAUG    =     F  two centre corrections for induced B field



--------------------------------------------------------------------------------------------------------


 Static calculation
 charge density and potential will be updated during run
 non-spin polarized calculation
 Conjugate gradient for all bands (Freysoldt, et al. PRB 79, 241103 (2009))
 preconditioned conjugated gradient                                        
 perform sub-space diagonalisation
    before iterative eigenvector-optimisation
 modified Broyden-mixing scheme, WC =      100.0
 initial mixing is a Kerker type mixing with AMIX =  0.4000 and BMIX =      1.0000
 Hartree-type preconditioning will be used
 using additional bands           60
 reciprocal scheme for non local part
 use partial core corrections
 no Harris-corrections to forces 
 use gradient corrections 
 use of overlap-Matrix (Vanderbilt PP)
 Gauss-broadening in eV      SIGMA  =   0.01


--------------------------------------------------------------------------------------------------------


  energy-cutoff  :     1000.00
  volume of cell :     3288.85
      direct lattice vectors                 reciprocal lattice vectors
    12.325000000  0.000000000  0.000000000     0.081135903  0.046843835  0.000000000
    -6.162500000 10.673763102  0.000000000     0.000000000  0.093687670  0.000000000
     0.000000000  0.000000000 25.000000000     0.000000000  0.000000000  0.040000000

  length of vectors
    12.325000000 12.325000000 25.000000000     0.093687670  0.093687670  0.040000000


 
 k-points in units of 2pi/SCALE and weight: auto                                    
   0.00000000  0.00000000  0.00000000       1.000
 
 k-points in reciprocal lattice and weights: auto                                    
   0.00000000  0.00000000  0.00000000       1.000
 
 position of ions in fractional coordinates (direct lattice) 
   0.97245084  0.00032082  0.00056671
   0.03911838  0.13365950  0.00044017
   0.17244363  0.00029545  0.00049963
   0.23909628  0.13364792  0.00025647
   0.97245206  0.20032201  0.00048522
   0.03912836  0.33364377  0.00044415
   0.17245176  0.20035455  0.00021917
   0.23912436  0.33366572  0.00007226
   0.37246557  0.00032440  0.00045391
   0.43913747  0.13361994  0.00025834
   0.97244982  0.40030936  0.00054761
   0.03912498  0.53363679  0.00057341
   0.37241618  0.40032948  0.00000000
   0.43909960  0.53363898  0.00023241
   0.57244368  0.00031213  0.00055958
   0.63911021  0.13363175  0.00054727
   0.97245270  0.60030565  0.00064029
   0.03912449  0.73364036  0.00065451
   0.57243347  0.60030624  0.00040289
   0.63911189  0.73364188  0.00052791
   0.17245463  0.40031823  0.00028904
   0.23912018  0.53363655  0.00037851
   0.37245975  0.20029599  0.00008900
   0.43910710  0.33367342  0.00005576
   0.17245216  0.60031151  0.00052434
   0.23912337  0.73363857  0.00057513
   0.57243108  0.20028917  0.00041330
   0.63911277  0.33361863  0.00046238
   0.37243981  0.60030802  0.00036284
   0.43911609  0.73363786  0.00049419
   0.57246936  0.40032050  0.00033992
   0.63911941  0.53365087  0.00045961
   0.77244572  0.00031543  0.00059616
   0.83911628  0.13364020  0.00057531
   0.77244051  0.20030743  0.00058103
   0.83912024  0.33363573  0.00058547
   0.77244632  0.40029837  0.00058298
   0.83911898  0.53363396  0.00062110
   0.77245614  0.60030817  0.00059571
   0.83911503  0.73364318  0.00063151
   0.97245531  0.80030558  0.00065223
   0.03911471  0.93364329  0.00059805
   0.17245797  0.80031221  0.00062337
   0.23913455  0.93364719  0.00054485
   0.37245140  0.80031667  0.00055140
   0.43912449  0.93364477  0.00054143
   0.57244110  0.80031005  0.00053453
   0.63911507  0.93363899  0.00058764
   0.77244510  0.80031319  0.00060206
   0.83911661  0.93364434  0.00060683
   0.37302101  0.25122688  0.16817928
   0.42087980  0.18931315  0.17075616
   0.32515698  0.31316719  0.16580109
 
 position of ions in cartesian coordinates  (Angst):
  11.98347958  0.00342433  0.01416777
  -0.34154264  1.42664989  0.01100432
   2.12354700  0.00315355  0.01249070
   2.12325634  1.42652621  0.00641170
  10.75098721  2.13818970  0.01213047
  -1.57382270  3.56123457  0.01110375
   0.89078307  2.13853702  0.00547917
   0.89099273  3.56146885  0.00180651
   4.58863896  0.00346260  0.01134782
   4.58893648  1.42622757  0.00645846
   9.51853763  4.27280730  0.01369027
  -2.80632132  5.69591267  0.01433526
   2.12299894  4.27302204  0.00000000
   2.12335237  5.69593607  0.00581036
   7.05344483  0.00333155  0.01398950
   7.05352764  1.42635365  0.01368187
   8.28609598  6.40752033  0.01600723
  -4.03884931  7.83070339  0.01636283
   3.35585531  6.40752662  0.01007237
   3.35598594  7.83071962  0.01319763
  -0.34145776  4.27290193  0.00722612
  -0.34137895  5.69591010  0.00946273
   3.35624236  2.13791198  0.00222492
   3.35573251  3.56155103  0.00139405
  -1.57394684  6.40758280  0.01310850
  -1.57385216  7.83068434  0.01437823
   5.82093107  2.13783916  0.01033241
   5.82114012  3.56096622  0.01155939
   0.89092245  6.40754561  0.00907111
   0.89106251  7.83067670  0.01235474
   4.58870974  4.27292622  0.00849795
   4.58852320  5.69606300  0.01149026
   9.51844972  0.00336679  0.01490402
   9.51855036  1.42644387  0.01438264
   8.28593477  2.13803408  0.01452582
   8.28612680  3.56114872  0.01463668
   7.05356221  4.27268994  0.01457444
   7.05362213  5.69588251  0.01552751
   5.82112285  6.40754723  0.01489279
   5.82101669  7.83073350  0.01578780
   7.05362858  8.54227219  0.01630582
  -5.27148792  9.96548729  0.01495127
  -2.80637951  8.54234295  0.01558431
  -2.80626749  9.96552896  0.01362126
  -0.34148805  8.54239058  0.01378498
  -0.34137657  9.96550309  0.01353576
   2.12342586  8.54231992  0.01336337
   2.12354296  9.96544135  0.01469111
   4.58845581  8.54235337  0.01505154
   4.58852904  9.96549848  0.01517076
   3.04929830  2.68153618  4.20448208
   4.02070129  2.02068374  4.26890394
   2.07766701  3.34267235  4.14502721
 


--------------------------------------------------------------------------------------------------------


 k-point   1 :   0.0000 0.0000 0.0000  plane waves:  236157

 maximum and minimum number of plane-waves per node :    236157   236157

 maximum number of plane-waves:    236157
 maximum index in each direction: 
   IXMAX=   31   IYMAX=   31   IZMAX=   64
   IXMIN=  -31   IYMIN=  -31   IZMIN=  -64


 serial   3D FFT for wavefunctions
 parallel 3D FFT for charge:
    minimum data exchange during FFTs selected (reduces bandwidth)


 total amount of memory used by VASP MPI-rank0   698619. kBytes
=======================================================================

   base      :      30000. kBytes
   nonl-proj :     230539. kBytes
   fftplans  :      40716. kBytes
   grid      :     363125. kBytes
   one-center:        162. kBytes
   wavefun   :      34077. kBytes
 
     INWAV:  cpu time    0.0001: real time    0.0003
 Broyden mixing: mesh for mixing (old mesh)
   NGX = 63   NGY = 63   NGZ =129
  (NGX  =256   NGY  =256   NGZ  =540)
  gives a total of 512001 points

 initial charge density was supplied:
 charge density of overlapping atoms calculated
 number of electron     216.0000000 magnetization 
 keeping initial charge density in first step


--------------------------------------------------------------------------------------------------------


 Maximum index for augmentation-charges          471 (set IRDMAX)


--------------------------------------------------------------------------------------------------------


 First call to EWALD:  gamma=   0.119
 Maximum number of real-space cells 4x 4x 2
 Maximum number of reciprocal cells 2x 2x 4

    FEWALD:  cpu time    0.0038: real time    0.0039


--------------------------------------- Iteration      1(   1)  ---------------------------------------


    POTLOK:  cpu time    1.7262: real time    1.7381
    SETDIJ:  cpu time    0.2094: real time    0.2102
    TRIAL :  cpu time   27.4205: real time   27.6264
    CORREC:  cpu time    0.0007: real time    0.0007
    --------------------------------------------
      LOOP:  cpu time   29.3736: real time   29.5934

 eigenvalue-minimisations  :   336
 total energy-change (2. order) : 0.2544198E+04  (-0.1080701E+05)
 number of electron     216.0000000 magnetization 
 augmentation part      216.0000000 magnetization 

 Free energy of the ion-electron system (eV)
  ---------------------------------------------------
  alpha Z        PSCENC =        47.94900195
  Ewald energy   TEWEN  =     45899.51553853
  -Hartree energ DENC   =    -51968.63327317
  -exchange      EXHF   =         0.00000000
  -V(xc)+E(xc)   XCENC  =       605.09417839
  PAW double counting   =      6340.10990386    -6200.63067283
  entropy T*S    EENTRO =        -0.00142211
  eigenvalues    EBANDS =      -548.72917769
  atomic energy  EATOM  =      8369.52358910
  ---------------------------------------------------
  free energy    TOTEN  =      2544.19766603 eV

  energy without entropy =     2544.19908814  energy(sigma->0) =     2544.19837709


--------------------------------------------------------------------------------------------------------




--------------------------------------- Iteration      1(   2)  ---------------------------------------


    TRIAL :  cpu time   38.8779: real time   39.2192
    CORREC:  cpu time    0.0001: real time    0.0001
    --------------------------------------------
      LOOP:  cpu time   38.8800: real time   39.2728

 eigenvalue-minimisations  :   560
 total energy-change (2. order) :-0.2482286E+04  (-0.2325685E+04)
 number of electron     216.0000000 magnetization 
 augmentation part      216.0000000 magnetization 

 Free energy of the ion-electron system (eV)
  ---------------------------------------------------
  alpha Z        PSCENC =        47.94900195
  Ewald energy   TEWEN  =     45899.51553853
  -Hartree energ DENC   =    -51968.63327317
  -exchange      EXHF   =         0.00000000
  -V(xc)+E(xc)   XCENC  =       605.09417839
  PAW double counting   =      6340.10990386    -6200.63067283
  entropy T*S    EENTRO =        -0.00000000
  eigenvalues    EBANDS =     -3031.01687842
  atomic energy  EATOM  =      8369.52358910
  ---------------------------------------------------
  free energy    TOTEN  =        61.91138741 eV

  energy without entropy =       61.91138741  energy(sigma->0) =       61.91138741


--------------------------------------------------------------------------------------------------------




--------------------------------------- Iteration      1(   3)  ---------------------------------------


    TRIAL :  cpu time   30.1853: real time   30.4640
    CORREC:  cpu time    0.0001: real time    0.0001
    --------------------------------------------
      LOOP:  cpu time   30.1992: real time   30.5066

 eigenvalue-minimisations  :   392
 total energy-change (2. order) :-0.6349737E+03  (-0.6318366E+03)
 number of electron     216.0000000 magnetization 
 augmentation part      216.0000000 magnetization 

 Free energy of the ion-electron system (eV)
  ---------------------------------------------------
  alpha Z        PSCENC =        47.94900195
  Ewald energy   TEWEN  =     45899.51553853
  -Hartree energ DENC   =    -51968.63327317
  -exchange      EXHF   =         0.00000000
  -V(xc)+E(xc)   XCENC  =       605.09417839
  PAW double counting   =      6340.10990386    -6200.63067283
  entropy T*S    EENTRO =        -0.00000000
  eigenvalues    EBANDS =     -3665.99059838
  atomic energy  EATOM  =      8369.52358910
  ---------------------------------------------------
  free energy    TOTEN  =      -573.06233254 eV

  energy without entropy =     -573.06233254  energy(sigma->0) =     -573.06233254


--------------------------------------------------------------------------------------------------------




--------------------------------------- Iteration      1(   4)  ---------------------------------------


    TRIAL :  cpu time   33.1231: real time   33.3878
    CORREC:  cpu time    0.0001: real time    0.0003
    --------------------------------------------
      LOOP:  cpu time   33.1453: real time   33.4490

 eigenvalue-minimisations  :   448
 total energy-change (2. order) :-0.3352326E+02  (-0.3327649E+02)
 number of electron     216.0000000 magnetization 
 augmentation part      216.0000000 magnetization 

 Free energy of the ion-electron system (eV)
  ---------------------------------------------------
  alpha Z        PSCENC =        47.94900195
  Ewald energy   TEWEN  =     45899.51553853
  -Hartree energ DENC   =    -51968.63327317
  -exchange      EXHF   =         0.00000000
  -V(xc)+E(xc)   XCENC  =       605.09417839
  PAW double counting   =      6340.10990386    -6200.63067283
  entropy T*S    EENTRO =        -0.00000000
  eigenvalues    EBANDS =     -3699.51385868
  atomic energy  EATOM  =      8369.52358910
  ---------------------------------------------------
  free energy    TOTEN  =      -606.58559285 eV

  energy without entropy =     -606.58559285  energy(sigma->0) =     -606.58559285


--------------------------------------------------------------------------------------------------------




--------------------------------------- Iteration      1(   5)  ---------------------------------------


    TRIAL :  cpu time   30.2556: real time   30.4767
    CORREC:  cpu time    0.0001: real time    0.0003
    CHARGE:  cpu time    2.9595: real time    2.9808
    --------------------------------------------
      LOOP:  cpu time   33.2432: real time   33.4889

 eigenvalue-minimisations  :   392
 total energy-change (2. order) :-0.1137745E+01  (-0.1136042E+01)
 number of electron     216.0000000 magnetization 
 augmentation part       -0.4504658 magnetization 

 Free energy of the ion-electron system (eV)
  ---------------------------------------------------
  alpha Z        PSCENC =        47.94900195
  Ewald energy   TEWEN  =     45899.51553853
  -Hartree energ DENC   =    -51968.63327317
  -exchange      EXHF   =         0.00000000
  -V(xc)+E(xc)   XCENC  =       605.09417839
  PAW double counting   =      6340.10990386    -6200.63067283
  entropy T*S    EENTRO =        -0.00000000
  eigenvalues    EBANDS =     -3700.65160322
  atomic energy  EATOM  =      8369.52358910
  ---------------------------------------------------
  free energy    TOTEN  =      -607.72333739 eV

  energy without entropy =     -607.72333739  energy(sigma->0) =     -607.72333739


--------------------------------------------------------------------------------------------------------




--------------------------------------- Iteration      1(   6)  ---------------------------------------


    POTLOK:  cpu time    1.6742: real time    1.6843
    SETDIJ:  cpu time    0.2219: real time    0.2228
    TRIAL :  cpu time   19.6543: real time   19.8024
    CORREC:  cpu time    8.8293: real time    8.8913
    CHARGE:  cpu time    2.9511: real time    2.9739
    --------------------------------------------
      LOOP:  cpu time   33.3807: real time   33.6269

 eigenvalue-minimisations  :     0
 total energy-change (2. order) : 0.9790908E+02  (-0.1125569E+02)
 number of electron     216.0000000 magnetization 
 augmentation part       -0.5098346 magnetization 

 Free energy of the ion-electron system (eV)
  ---------------------------------------------------
  alpha Z        PSCENC =        47.94900195
  Ewald energy   TEWEN  =     45899.51553853
  -Hartree energ DENC   =    -53311.00748888
  -exchange      EXHF   =         0.00000000
  -V(xc)+E(xc)   XCENC  =       676.73064076
  PAW double counting   =    119558.33164631  -119418.73783563
  entropy T*S    EENTRO =        -0.00000000
  eigenvalues    EBANDS =     -2332.11935037
  atomic energy  EATOM  =      8369.52358910
  ---------------------------------------------------
  free energy    TOTEN  =      -509.81425823 eV

  energy without entropy =     -509.81425823  energy(sigma->0) =     -509.81425823


--------------------------------------------------------------------------------------------------------




--------------------------------------- Iteration      1(   7)  ---------------------------------------


    POTLOK:  cpu time    1.6747: real time    1.6841
    SETDIJ:  cpu time    0.2138: real time    0.2146
    TRIAL :  cpu time   19.6749: real time   19.8233
    CORREC:  cpu time    8.8322: real time    8.8928
    CHARGE:  cpu time    2.9546: real time    2.9764
    --------------------------------------------
      LOOP:  cpu time   33.4149: real time   33.6598

 eigenvalue-minimisations  :     0
 total energy-change (2. order) :-0.1126935E+02  (-0.1473107E+01)
 number of electron     216.0000000 magnetization 
 augmentation part       -0.5426052 magnetization 

 Free energy of the ion-electron system (eV)
  ---------------------------------------------------
  alpha Z        PSCENC =        47.94900195
  Ewald energy   TEWEN  =     45899.51553853
  -Hartree energ DENC   =    -52900.27825935
  -exchange      EXHF   =         0.00000000
  -V(xc)+E(xc)   XCENC  =       659.14241566
  PAW double counting   =    138778.09623594  -138636.77112832
  entropy T*S    EENTRO =        -0.00000000
  eigenvalues    EBANDS =     -2738.26100420
  atomic energy  EATOM  =      8369.52358910
  ---------------------------------------------------
  free energy    TOTEN  =      -521.08361067 eV

  energy without entropy =     -521.08361067  energy(sigma->0) =     -521.08361067


--------------------------------------------------------------------------------------------------------




--------------------------------------- Iteration      1(   8)  ---------------------------------------


    POTLOK:  cpu time    1.6724: real time    1.6822
    SETDIJ:  cpu time    0.2138: real time    0.2146
    TRIAL :  cpu time   19.6785: real time   19.8227
    CORREC:  cpu time    8.8343: real time    8.9003
    CHARGE:  cpu time    2.9486: real time    2.9697
    --------------------------------------------
      LOOP:  cpu time   33.4010: real time   33.6500

 eigenvalue-minimisations  :     0
 total energy-change (2. order) :-0.1473347E+01  (-0.4685641E+00)
 number of electron     216.0000000 magnetization 
 augmentation part       -0.5434671 magnetization 

 Free energy of the ion-electron system (eV)
  ---------------------------------------------------
  alpha Z        PSCENC =        47.94900195
  Ewald energy   TEWEN  =     45899.51553853
  -Hartree energ DENC   =    -52871.39485146
  -exchange      EXHF   =         0.00000000
  -V(xc)+E(xc)   XCENC  =       658.04727399
  PAW double counting   =    148522.84521304  -148381.39384222
  entropy T*S    EENTRO =        -0.00000000
  eigenvalues    EBANDS =     -2767.64888069
  atomic energy  EATOM  =      8369.52358910
  ---------------------------------------------------
  free energy    TOTEN  =      -522.55695776 eV

  energy without entropy =     -522.55695776  energy(sigma->0) =     -522.55695776


--------------------------------------------------------------------------------------------------------




--------------------------------------- Iteration      1(   9)  ---------------------------------------


    POTLOK:  cpu time    1.6714: real time    1.6813
    SETDIJ:  cpu time    0.2124: real time    0.2133
    TRIAL :  cpu time   19.6577: real time   19.8101
    CORREC:  cpu time    8.8157: real time    8.9004
    CHARGE:  cpu time    2.9480: real time    2.9697
    --------------------------------------------
      LOOP:  cpu time   33.3914: real time   33.6622

 eigenvalue-minimisations  :     0
 total energy-change (2. order) :-0.4683185E+00  (-0.1856390E+00)
 number of electron     216.0000000 magnetization 
 augmentation part       -0.5399714 magnetization 

 Free energy of the ion-electron system (eV)
  ---------------------------------------------------
  alpha Z        PSCENC =        47.94900195
  Ewald energy   TEWEN  =     45899.51553853
  -Hartree energ DENC   =    -52878.78205804
  -exchange      EXHF   =         0.00000000
  -V(xc)+E(xc)   XCENC  =       658.01627886
  PAW double counting   =    156437.24048653  -156295.71748437
  entropy T*S    EENTRO =        -0.00000000
  eigenvalues    EBANDS =     -2760.77062887
  atomic energy  EATOM  =      8369.52358910
  ---------------------------------------------------
  free energy    TOTEN  =      -523.02527630 eV

  energy without entropy =     -523.02527630  energy(sigma->0) =     -523.02527630


--------------------------------------------------------------------------------------------------------




--------------------------------------- Iteration      1(  10)  ---------------------------------------


    POTLOK:  cpu time    1.6758: real time    1.6858
    SETDIJ:  cpu time    0.2105: real time    0.2113
    TRIAL :  cpu time   19.6517: real time   19.8001
    CORREC:  cpu time    8.8320: real time    8.8962
    CHARGE:  cpu time    2.9454: real time    2.9664
    --------------------------------------------
      LOOP:  cpu time   33.3852: real time   33.6341

 eigenvalue-minimisations  :     0
 total energy-change (2. order) :-0.1854040E+00  (-0.8240768E-01)
 number of electron     216.0000000 magnetization 
 augmentation part       -0.5344505 magnetization 

 Free energy of the ion-electron system (eV)
  ---------------------------------------------------
  alpha Z        PSCENC =        47.94900195
  Ewald energy   TEWEN  =     45899.51553853
  -Hartree energ DENC   =    -52878.18573671
  -exchange      EXHF   =         0.00000000
  -V(xc)+E(xc)   XCENC  =       657.92358562
  PAW double counting   =    160221.05770907  -160079.48640092
  entropy T*S    EENTRO =        -0.00000000
  eigenvalues    EBANDS =     -2761.50796693
  atomic energy  EATOM  =      8369.52358910
  ---------------------------------------------------
  free energy    TOTEN  =      -523.21068029 eV

  energy without entropy =     -523.21068029  energy(sigma->0) =     -523.21068029


--------------------------------------------------------------------------------------------------------




--------------------------------------- Iteration      1(  11)  ---------------------------------------


    POTLOK:  cpu time    1.6707: real time    1.6816
    SETDIJ:  cpu time    0.2140: real time    0.2148
    TRIAL :  cpu time   19.6546: real time   19.7950
    CORREC:  cpu time    8.8469: real time    8.9055
    CHARGE:  cpu time    2.9563: real time    2.9770
    --------------------------------------------
      LOOP:  cpu time   33.3890: real time   33.6653

 eigenvalue-minimisations  :     0
 total energy-change (2. order) :-0.8225804E-01  (-0.3196090E-01)
 number of electron     216.0000000 magnetization 
 augmentation part       -0.5307942 magnetization 

 Free energy of the ion-electron system (eV)
  ---------------------------------------------------
  alpha Z        PSCENC =        47.94900195
  Ewald energy   TEWEN  =     45899.51553853
  -Hartree energ DENC   =    -52872.16674494
  -exchange      EXHF   =         0.00000000
  -V(xc)+E(xc)   XCENC  =       657.84206543
  PAW double counting   =    160823.63226195  -160682.07925384
  entropy T*S    EENTRO =        -0.00000000
  eigenvalues    EBANDS =     -2767.50939652
  atomic energy  EATOM  =      8369.52358910
  ---------------------------------------------------
  free energy    TOTEN  =      -523.29293833 eV

  energy without entropy =     -523.29293833  energy(sigma->0) =     -523.29293833


--------------------------------------------------------------------------------------------------------




--------------------------------------- Iteration      1(  12)  ---------------------------------------


    POTLOK:  cpu time    1.6714: real time    1.6816
    SETDIJ:  cpu time    0.2130: real time    0.2138
    TRIAL :  cpu time   19.6491: real time   19.8024
    CORREC:  cpu time    8.8340: real time    8.8985
    CHARGE:  cpu time    2.9545: real time    2.9754
    --------------------------------------------
      LOOP:  cpu time   33.3831: real time   33.6357

 eigenvalue-minimisations  :     0
 total energy-change (2. order) :-0.3191743E-01  (-0.9817173E-02)
 number of electron     216.0000000 magnetization 
 augmentation part       -0.5305488 magnetization 

 Free energy of the ion-electron system (eV)
  ---------------------------------------------------
  alpha Z        PSCENC =        47.94900195
  Ewald energy   TEWEN  =     45899.51553853
  -Hartree energ DENC   =    -52867.72403357
  -exchange      EXHF   =         0.00000000
  -V(xc)+E(xc)   XCENC  =       657.77415031
  PAW double counting   =    160179.36548527  -160037.83929154
  entropy T*S    EENTRO =        -0.00000000
  eigenvalues    EBANDS =     -2771.88929580
  atomic energy  EATOM  =      8369.52358910
  ---------------------------------------------------
  free energy    TOTEN  =      -523.32485576 eV

  energy without entropy =     -523.32485576  energy(sigma->0) =     -523.32485576


--------------------------------------------------------------------------------------------------------




--------------------------------------- Iteration      1(  13)  ---------------------------------------


    POTLOK:  cpu time    1.6748: real time    1.6846
    SETDIJ:  cpu time    0.2091: real time    0.2099
    TRIAL :  cpu time   19.6561: real time   19.8020
    CORREC:  cpu time    8.8463: real time    8.9154
    CHARGE:  cpu time    2.9570: real time    2.9782
    --------------------------------------------
      LOOP:  cpu time   33.3719: real time   33.6344

 eigenvalue-minimisations  :     0
 total energy-change (2. order) :-0.9799349E-02  (-0.2768042E-02)
 number of electron     216.0000000 magnetization 
 augmentation part       -0.5310433 magnetization 

 Free energy of the ion-electron system (eV)
  ---------------------------------------------------
  alpha Z        PSCENC =        47.94900195
  Ewald energy   TEWEN  =     45899.51553853
  -Hartree energ DENC   =    -52866.47679289
  -exchange      EXHF   =         0.00000000
  -V(xc)+E(xc)   XCENC  =       657.72662680
  PAW double counting   =    159470.50269428  -159328.98054850
  entropy T*S    EENTRO =        -0.00000000
  eigenvalues    EBANDS =     -2773.09476438
  atomic energy  EATOM  =      8369.52358910
  ---------------------------------------------------
  free energy    TOTEN  =      -523.33465511 eV

  energy without entropy =     -523.33465511  energy(sigma->0) =     -523.33465511


--------------------------------------------------------------------------------------------------------




--------------------------------------- Iteration      1(  14)  ---------------------------------------


    POTLOK:  cpu time    1.6720: real time    1.6816
    SETDIJ:  cpu time    0.2140: real time    0.2147
    TRIAL :  cpu time   19.6556: real time   19.8030
    CORREC:  cpu time    8.8385: real time    8.8982
    CHARGE:  cpu time    2.9584: real time    2.9793
    --------------------------------------------
      LOOP:  cpu time   33.4132: real time   33.6568

 eigenvalue-minimisations  :     0
 total energy-change (2. order) :-0.2757492E-02  (-0.7732492E-03)
 number of electron     216.0000000 magnetization 
 augmentation part       -0.5313486 magnetization 

 Free energy of the ion-electron system (eV)
  ---------------------------------------------------
  alpha Z        PSCENC =        47.94900195
  Ewald energy   TEWEN  =     45899.51553853
  -Hartree energ DENC   =    -52866.58786803
  -exchange      EXHF   =         0.00000000
  -V(xc)+E(xc)   XCENC  =       657.71626401
  PAW double counting   =    159049.67616675  -158908.15275789
  entropy T*S    EENTRO =        -0.00000000
  eigenvalues    EBANDS =     -2772.97734703
  atomic energy  EATOM  =      8369.52358910
  ---------------------------------------------------
  free energy    TOTEN  =      -523.33741260 eV

  energy without entropy =     -523.33741260  energy(sigma->0) =     -523.33741260


--------------------------------------------------------------------------------------------------------




--------------------------------------- Iteration      1(  15)  ---------------------------------------


    POTLOK:  cpu time    1.6688: real time    1.6839
    SETDIJ:  cpu time    0.2091: real time    0.2101
    TRIAL :  cpu time   19.6116: real time   19.8166
    CORREC:  cpu time    8.8546: real time    8.9138
    CHARGE:  cpu time    2.9485: real time    2.9694
    --------------------------------------------
      LOOP:  cpu time   33.2955: real time   33.6271

 eigenvalue-minimisations  :     0
 total energy-change (2. order) :-0.7681350E-03  (-0.2280070E-03)
 number of electron     216.0000000 magnetization 
 augmentation part       -0.5315651 magnetization 

 Free energy of the ion-electron system (eV)
  ---------------------------------------------------
  alpha Z        PSCENC =        47.94900195
  Ewald energy   TEWEN  =     45899.51553853
  -Hartree energ DENC   =    -52866.53963462
  -exchange      EXHF   =         0.00000000
  -V(xc)+E(xc)   XCENC  =       657.71117712
  PAW double counting   =    158839.53786415  -158698.01329829
  entropy T*S    EENTRO =        -0.00000000
  eigenvalues    EBANDS =     -2773.02241868
  atomic energy  EATOM  =      8369.52358910
  ---------------------------------------------------
  free energy    TOTEN  =      -523.33818073 eV

  energy without entropy =     -523.33818073  energy(sigma->0) =     -523.33818073


--------------------------------------------------------------------------------------------------------




--------------------------------------- Iteration      1(  16)  ---------------------------------------


    POTLOK:  cpu time    1.6739: real time    1.6832
    SETDIJ:  cpu time    0.2100: real time    0.2107
    TRIAL :  cpu time   19.6726: real time   19.8122
    CORREC:  cpu time    8.8382: real time    8.9002
    CHARGE:  cpu time    2.9603: real time    2.9811
    --------------------------------------------
      LOOP:  cpu time   33.4170: real time   33.6534

 eigenvalue-minimisations  :     0
 total energy-change (2. order) :-0.2258793E-03  (-0.8357046E-04)
 number of electron     216.0000000 magnetization 
 augmentation part       -0.5316494 magnetization 

 Free energy of the ion-electron system (eV)
  ---------------------------------------------------
  alpha Z        PSCENC =        47.94900195
  Ewald energy   TEWEN  =     45899.51553853
  -Hartree energ DENC   =    -52866.43962132
  -exchange      EXHF   =         0.00000000
  -V(xc)+E(xc)   XCENC  =       657.70502692
  PAW double counting   =    158725.22201522  -158583.69570869
  entropy T*S    EENTRO =        -0.00000000
  eigenvalues    EBANDS =     -2773.11824833
  atomic energy  EATOM  =      8369.52358910
  ---------------------------------------------------
  free energy    TOTEN  =      -523.33840661 eV

  energy without entropy =     -523.33840661  energy(sigma->0) =     -523.33840661


--------------------------------------------------------------------------------------------------------




--------------------------------------- Iteration      1(  17)  ---------------------------------------


    POTLOK:  cpu time    1.6709: real time    1.6804
    SETDIJ:  cpu time    0.2140: real time    0.2147
    TRIAL :  cpu time   19.6233: real time   19.7966
    CORREC:  cpu time    8.8504: real time    8.9091
    CHARGE:  cpu time    2.9580: real time    2.9787
    --------------------------------------------
      LOOP:  cpu time   33.3759: real time   33.6461

 eigenvalue-minimisations  :     0
 total energy-change (2. order) :-0.8231623E-04  (-0.3485437E-04)
 number of electron     216.0000000 magnetization 
 augmentation part       -0.5316911 magnetization 

 Free energy of the ion-electron system (eV)
  ---------------------------------------------------
  alpha Z        PSCENC =        47.94900195
  Ewald energy   TEWEN  =     45899.51553853
  -Hartree energ DENC   =    -52866.59932949
  -exchange      EXHF   =         0.00000000
  -V(xc)+E(xc)   XCENC  =       657.71190032
  PAW double counting   =    158654.28744842  -158512.76107286
  entropy T*S    EENTRO =        -0.00000000
  eigenvalues    EBANDS =     -2772.96556490
  atomic energy  EATOM  =      8369.52358910
  ---------------------------------------------------
  free energy    TOTEN  =      -523.33848893 eV

  energy without entropy =     -523.33848893  energy(sigma->0) =     -523.33848893


--------------------------------------------------------------------------------------------------------




--------------------------------------- Iteration      1(  18)  ---------------------------------------


    POTLOK:  cpu time    1.6727: real time    1.6826
    SETDIJ:  cpu time    0.2122: real time    0.2131
    TRIAL :  cpu time   19.6329: real time   19.8048
    CORREC:  cpu time    8.8317: real time    8.9033
    CHARGE:  cpu time    2.9452: real time    2.9772
    --------------------------------------------
      LOOP:  cpu time   33.3511: real time   33.6395

 eigenvalue-minimisations  :     0
 total energy-change (2. order) :-0.3503280E-04  (-0.1337108E-04)
 number of electron     216.0000000 magnetization 
 augmentation part       -0.5317108 magnetization 

 Free energy of the ion-electron system (eV)
  ---------------------------------------------------
  alpha Z        PSCENC =        47.94900195
  Ewald energy   TEWEN  =     45899.51553853
  -Hartree energ DENC   =    -52866.67083192
  -exchange      EXHF   =         0.00000000
  -V(xc)+E(xc)   XCENC  =       657.71449373
  PAW double counting   =    158628.85792221  -158487.33124472
  entropy T*S    EENTRO =        -0.00000000
  eigenvalues    EBANDS =     -2772.89699285
  atomic energy  EATOM  =      8369.52358910
  ---------------------------------------------------
  free energy    TOTEN  =      -523.33852396 eV

  energy without entropy =     -523.33852396  energy(sigma->0) =     -523.33852396


--------------------------------------------------------------------------------------------------------




--------------------------------------- Iteration      1(  19)  ---------------------------------------


    POTLOK:  cpu time    1.6715: real time    1.6831
    SETDIJ:  cpu time    0.2129: real time    0.2137
    TRIAL :  cpu time   19.6415: real time   19.8100
    CORREC:  cpu time    8.8461: real time    8.9114
    CHARGE:  cpu time    2.9592: real time    2.9801
    --------------------------------------------
      LOOP:  cpu time   33.3855: real time   33.6702

 eigenvalue-minimisations  :     0
 total energy-change (2. order) :-0.1378497E-04  (-0.4963735E-05)
 number of electron     216.0000000 magnetization 
 augmentation part       -0.5317028 magnetization 

 Free energy of the ion-electron system (eV)
  ---------------------------------------------------
  alpha Z        PSCENC =        47.94900195
  Ewald energy   TEWEN  =     45899.51553853
  -Hartree energ DENC   =    -52866.66399112
  -exchange      EXHF   =         0.00000000
  -V(xc)+E(xc)   XCENC  =       657.71386712
  PAW double counting   =    158635.46016423  -158493.93317944
  entropy T*S    EENTRO =        -0.00000000
  eigenvalues    EBANDS =     -2772.90352811
  atomic energy  EATOM  =      8369.52358910
  ---------------------------------------------------
  free energy    TOTEN  =      -523.33853775 eV

  energy without entropy =     -523.33853775  energy(sigma->0) =     -523.33853775


--------------------------------------------------------------------------------------------------------




--------------------------------------- Iteration      1(  20)  ---------------------------------------


    POTLOK:  cpu time    1.6738: real time    1.6838
    SETDIJ:  cpu time    0.2132: real time    0.2140
    TRIAL :  cpu time   19.6766: real time   19.8227
    CORREC:  cpu time    8.8295: real time    8.8959
    CHARGE:  cpu time    2.9567: real time    2.9783
    --------------------------------------------
      LOOP:  cpu time   33.4195: real time   33.6655

 eigenvalue-minimisations  :     0
 total energy-change (2. order) :-0.5096139E-05  (-0.1776639E-05)
 number of electron     216.0000000 magnetization 
 augmentation part       -0.5316955 magnetization 

 Free energy of the ion-electron system (eV)
  ---------------------------------------------------
  alpha Z        PSCENC =        47.94900195
  Ewald energy   TEWEN  =     45899.51553853
  -Hartree energ DENC   =    -52866.68645575
  -exchange      EXHF   =         0.00000000
  -V(xc)+E(xc)   XCENC  =       657.71482368
  PAW double counting   =    158649.34119939  -158507.81432727
  entropy T*S    EENTRO =        -0.00000000
  eigenvalues    EBANDS =     -2772.88191247
  atomic energy  EATOM  =      8369.52358910
  ---------------------------------------------------
  free energy    TOTEN  =      -523.33854284 eV

  energy without entropy =     -523.33854284  energy(sigma->0) =     -523.33854284


--------------------------------------------------------------------------------------------------------




--------------------------------------- Iteration      1(  21)  ---------------------------------------


    POTLOK:  cpu time    1.6734: real time    1.6832
    SETDIJ:  cpu time    0.2106: real time    0.2114
    TRIAL :  cpu time   19.6521: real time   19.8025
    CORREC:  cpu time    8.8582: real time    8.9187
    CHARGE:  cpu time    2.9546: real time    2.9760
    --------------------------------------------
      LOOP:  cpu time   33.4072: real time   33.6551

 eigenvalue-minimisations  :     0
 total energy-change (2. order) :-0.1793960E-05  (-0.6677898E-06)
 number of electron     216.0000000 magnetization 
 augmentation part       -0.5316827 magnetization 

 Free energy of the ion-electron system (eV)
  ---------------------------------------------------
  alpha Z        PSCENC =        47.94900195
  Ewald energy   TEWEN  =     45899.51553853
  -Hartree energ DENC   =    -52866.69060869
  -exchange      EXHF   =         0.00000000
  -V(xc)+E(xc)   XCENC  =       657.71473831
  PAW double counting   =    158660.38859182  -158518.86176488
  entropy T*S    EENTRO =        -0.00000000
  eigenvalues    EBANDS =     -2772.87763079
  atomic energy  EATOM  =      8369.52358910
  ---------------------------------------------------
  free energy    TOTEN  =      -523.33854464 eV

  energy without entropy =     -523.33854464  energy(sigma->0) =     -523.33854464


--------------------------------------------------------------------------------------------------------




--------------------------------------- Iteration      1(  22)  ---------------------------------------


    POTLOK:  cpu time    1.6722: real time    1.6819
    SETDIJ:  cpu time    0.2122: real time    0.2130
    TRIAL :  cpu time   19.6374: real time   19.7958
    CORREC:  cpu time    8.8583: real time    8.9224
    CHARGE:  cpu time    2.9482: real time    2.9690
    --------------------------------------------
      LOOP:  cpu time   33.4024: real time   33.6572

 eigenvalue-minimisations  :     0
 total energy-change (2. order) :-0.6430200E-06  (-0.3174347E-06)
 number of electron     216.0000000 magnetization 
 augmentation part       -0.5316724 magnetization 

 Free energy of the ion-electron system (eV)
  ---------------------------------------------------
  alpha Z        PSCENC =        47.94900195
  Ewald energy   TEWEN  =     45899.51553853
  -Hartree energ DENC   =    -52866.68564032
  -exchange      EXHF   =         0.00000000
  -V(xc)+E(xc)   XCENC  =       657.71455016
  PAW double counting   =    158666.66409444  -158525.13735344
  entropy T*S    EENTRO =        -0.00000000
  eigenvalues    EBANDS =     -2772.88232570
  atomic energy  EATOM  =      8369.52358910
  ---------------------------------------------------
  free energy    TOTEN  =      -523.33854528 eV

  energy without entropy =     -523.33854528  energy(sigma->0) =     -523.33854528


--------------------------------------------------------------------------------------------------------




--------------------------------------- Iteration      1(  23)  ---------------------------------------


    POTLOK:  cpu time    1.6710: real time    1.6804
    SETDIJ:  cpu time    0.2142: real time    0.2149
    TRIAL :  cpu time   19.6548: real time   19.8154
    CORREC:  cpu time    8.8448: real time    8.9129
    CHARGE:  cpu time    2.9708: real time    2.9914
    --------------------------------------------
      LOOP:  cpu time   33.3833: real time   33.6852

 eigenvalue-minimisations  :     0
 total energy-change (2. order) :-0.2391171E-06  (-0.2240781E-06)
 number of electron     216.0000000 magnetization 
 augmentation part       -0.5316746 magnetization 

 Free energy of the ion-electron system (eV)
  ---------------------------------------------------
  alpha Z        PSCENC =        47.94900195
  Ewald energy   TEWEN  =     45899.51553853
  -Hartree energ DENC   =    -52866.68173763
  -exchange      EXHF   =         0.00000000
  -V(xc)+E(xc)   XCENC  =       657.71450419
  PAW double counting   =    158670.17078069  -158528.64412137
  entropy T*S    EENTRO =        -0.00000000
  eigenvalues    EBANDS =     -2772.88610099
  atomic energy  EATOM  =      8369.52358910
  ---------------------------------------------------
  free energy    TOTEN  =      -523.33854552 eV

  energy without entropy =     -523.33854552  energy(sigma->0) =     -523.33854552


--------------------------------------------------------------------------------------------------------




--------------------------------------- Iteration      1(  24)  ---------------------------------------


    POTLOK:  cpu time    1.6724: real time    1.6819
    SETDIJ:  cpu time    0.2300: real time    0.2308
    TRIAL :  cpu time   19.6483: real time   19.8052
    CORREC:  cpu time    8.8093: real time    8.8836
    CHARGE:  cpu time    2.9529: real time    2.9770
    --------------------------------------------
      LOOP:  cpu time   33.3502: real time   33.6193

 eigenvalue-minimisations  :     0
 total energy-change (2. order) : 0.9770156E-07  (-0.2190194E-06)
 number of electron     216.0000000 magnetization 
 augmentation part       -0.5316723 magnetization 

 Free energy of the ion-electron system (eV)
  ---------------------------------------------------
  alpha Z        PSCENC =        47.94900195
  Ewald energy   TEWEN  =     45899.51553853
  -Hartree energ DENC   =    -52866.67268309
  -exchange      EXHF   =         0.00000000
  -V(xc)+E(xc)   XCENC  =       657.71415060
  PAW double counting   =    158672.97103599  -158531.44436376
  entropy T*S    EENTRO =        -0.00000000
  eigenvalues    EBANDS =     -2772.89481474
  atomic energy  EATOM  =      8369.52358910
  ---------------------------------------------------
  free energy    TOTEN  =      -523.33854542 eV

  energy without entropy =     -523.33854542  energy(sigma->0) =     -523.33854542


--------------------------------------------------------------------------------------------------------




--------------------------------------- Iteration      1(  25)  ---------------------------------------


    POTLOK:  cpu time    1.6713: real time    1.6826
    SETDIJ:  cpu time    0.2108: real time    0.2117
    TRIAL :  cpu time   19.6411: real time   19.8138
    CORREC:  cpu time   35.2964: real time   35.5695
    CHARGE:  cpu time    2.9524: real time    2.9737
    --------------------------------------------
      LOOP:  cpu time   59.8081: real time   60.2925

 eigenvalue-minimisations  :     0
 total energy-change (2. order) :-0.1763983E-06  (-0.6387132E-06)
 number of electron     216.0000000 magnetization 
 augmentation part       -0.5317017 magnetization 

 Free energy of the ion-electron system (eV)
  ---------------------------------------------------
  alpha Z        PSCENC =        47.94900195
  Ewald energy   TEWEN  =     45899.51553853
  -Hartree energ DENC   =    -52866.67879520
  -exchange      EXHF   =         0.00000000
  -V(xc)+E(xc)   XCENC  =       657.71452585
  PAW double counting   =    158672.19290452  -158530.66628160
  entropy T*S    EENTRO =        -0.00000000
  eigenvalues    EBANDS =     -2772.88902875
  atomic energy  EATOM  =      8369.52358910
  ---------------------------------------------------
  free energy    TOTEN  =      -523.33854560 eV

  energy without entropy =     -523.33854560  energy(sigma->0) =     -523.33854560


--------------------------------------------------------------------------------------------------------




--------------------------------------- Iteration      1(  26)  ---------------------------------------


    POTLOK:  cpu time    1.6723: real time    1.6821
    SETDIJ:  cpu time    0.2100: real time    0.2109
    TRIAL :  cpu time   19.6550: real time   19.8109
    CORREC:  cpu time    8.8253: real time    8.8893
    CHARGE:  cpu time    2.9711: real time    3.0048
    --------------------------------------------
      LOOP:  cpu time   33.3949: real time   33.6660

 eigenvalue-minimisations  :     0
 total energy-change (2. order) : 0.1177948E-05  (-0.1170784E-05)
 number of electron     216.0000000 magnetization 
 augmentation part       -0.5316849 magnetization 

 Free energy of the ion-electron system (eV)
  ---------------------------------------------------
  alpha Z        PSCENC =        47.94900195
  Ewald energy   TEWEN  =     45899.51553853
  -Hartree energ DENC   =    -52866.66185904
  -exchange      EXHF   =         0.00000000
  -V(xc)+E(xc)   XCENC  =       657.71326384
  PAW double counting   =    158667.62453398  -158526.09758633
  entropy T*S    EENTRO =        -0.00000000
  eigenvalues    EBANDS =     -2772.90502646
  atomic energy  EATOM  =      8369.52358910
  ---------------------------------------------------
  free energy    TOTEN  =      -523.33854442 eV

  energy without entropy =     -523.33854442  energy(sigma->0) =     -523.33854442


--------------------------------------------------------------------------------------------------------




--------------------------------------- Iteration      1(  27)  ---------------------------------------


    POTLOK:  cpu time    1.6757: real time    1.6856
    SETDIJ:  cpu time    0.2112: real time    0.2120
    TRIAL :  cpu time   19.6627: real time   19.8145
    CORREC:  cpu time    8.8271: real time    8.8878
    CHARGE:  cpu time    2.9543: real time    2.9773
    --------------------------------------------
      LOOP:  cpu time   33.3575: real time   33.6052

 eigenvalue-minimisations  :     0
 total energy-change (2. order) :-0.1182780E-05  (-0.1318776E-06)
 number of electron     216.0000000 magnetization 
 augmentation part       -0.5316825 magnetization 

 Free energy of the ion-electron system (eV)
  ---------------------------------------------------
  alpha Z        PSCENC =        47.94900195
  Ewald energy   TEWEN  =     45899.51553853
  -Hartree energ DENC   =    -52866.68313977
  -exchange      EXHF   =         0.00000000
  -V(xc)+E(xc)   XCENC  =       657.71457742
  PAW double counting   =    158667.54031247  -158526.01359449
  entropy T*S    EENTRO =        -0.00000000
  eigenvalues    EBANDS =     -2772.88483081
  atomic energy  EATOM  =      8369.52358910
  ---------------------------------------------------
  free energy    TOTEN  =      -523.33854560 eV

  energy without entropy =     -523.33854560  energy(sigma->0) =     -523.33854560


--------------------------------------------------------------------------------------------------------




--------------------------------------- Iteration      1(  28)  ---------------------------------------


    POTLOK:  cpu time    1.6745: real time    1.6847
    SETDIJ:  cpu time    0.2106: real time    0.2114
    TRIAL :  cpu time   19.6783: real time   19.8249
    CORREC:  cpu time    8.8445: real time    8.9074
    CHARGE:  cpu time    2.9481: real time    2.9691
    --------------------------------------------
      LOOP:  cpu time   33.4015: real time   33.6434

 eigenvalue-minimisations  :     0
 total energy-change (2. order) :-0.1067237E-06  (-0.3555840E-07)
 number of electron     216.0000000 magnetization 
 augmentation part       -0.5316814 magnetization 

 Free energy of the ion-electron system (eV)
  ---------------------------------------------------
  alpha Z        PSCENC =        47.94900195
  Ewald energy   TEWEN  =     45899.51553853
  -Hartree energ DENC   =    -52866.68025125
  -exchange      EXHF   =         0.00000000
  -V(xc)+E(xc)   XCENC  =       657.71447502
  PAW double counting   =    158667.81597453  -158526.28926426
  entropy T*S    EENTRO =        -0.00000000
  eigenvalues    EBANDS =     -2772.88760934
  atomic energy  EATOM  =      8369.52358910
  ---------------------------------------------------
  free energy    TOTEN  =      -523.33854571 eV

  energy without entropy =     -523.33854571  energy(sigma->0) =     -523.33854571


--------------------------------------------------------------------------------------------------------




--------------------------------------- Iteration      1(  29)  ---------------------------------------


[...]
      9     -22.6874      2.00000
     10     -20.7447      2.00000
     11     -20.7446      2.00000
     12     -20.7440      2.00000
     13     -20.7434      2.00000
     14     -20.7432      2.00000
     15     -20.7429      2.00000
     16     -19.8017      2.00000
     17     -19.8012      2.00000
     18     -19.8010      2.00000
     19     -19.8009      2.00000
     20     -19.8006      2.00000
     21     -19.8000      2.00000
     22     -17.5616      2.00000
     23     -17.5614      2.00000
     24     -17.5610      2.00000
     25     -17.5604      2.00000
     26     -17.5583      2.00000
     27     -17.5581      2.00000
     28     -16.3929      2.00000
     29     -16.3927      2.00000
     30     -16.3919      2.00000
     31     -16.3917      2.00000
     32     -16.3912      2.00000
     33     -16.3911      2.00000
     34     -14.9860      2.00000
     35     -14.9859      2.00000
     36     -14.9854      2.00000
     37     -14.9851      2.00000
     38     -14.9851      2.00000
     39     -14.9842      2.00000
     40     -13.2105      2.00000
     41     -12.4939      2.00000
     42     -12.4937      2.00000
     43     -12.4932      2.00000
     44     -12.4931      2.00000
     45     -12.4925      2.00000
     46     -12.4924      2.00000
     47     -12.2873      2.00000
     48     -12.2873      2.00000
     49     -12.2861      2.00000
     50     -12.2860      2.00000
     51     -12.2844      2.00000
     52     -12.2842      2.00000
     53     -11.8659      2.00000
     54     -11.6722      2.00000
     55     -11.6693      2.00000
     56     -10.9764      2.00000
     57     -10.8236      2.00000
     58     -10.8235      2.00000
     59     -10.8226      2.00000
     60     -10.8223      2.00000
     61     -10.8218      2.00000
     62     -10.8217      2.00000
     63      -9.8066      2.00000
     64      -9.8035      2.00000
     65      -9.7984      2.00000
     66      -9.7981      2.00000
     67      -9.7953      2.00000
     68      -9.7949      2.00000
     69      -9.4933      2.00000
     70      -9.4917      2.00000
     71      -9.4915      2.00000
     72      -9.4900      2.00000
     73      -9.4899      2.00000
     74      -9.4897      2.00000
     75      -9.4859      2.00000
     76      -9.4858      2.00000
     77      -9.4855      2.00000
     78      -9.4848      2.00000
     79      -9.4840      2.00000
     80      -9.4834      2.00000
     81      -8.0347      2.00000
     82      -8.0328      2.00000
     83      -7.7470      2.00000
     84      -7.7467      2.00000
     85      -7.7462      2.00000
     86      -7.7458      2.00000
     87      -7.7432      2.00000
     88      -7.7432      2.00000
     89      -7.5550      2.00000
     90      -7.5545      2.00000
     91      -7.5511      2.00000
     92      -7.5501      2.00000
     93      -7.5499      2.00000
     94      -7.5496      2.00000
     95      -6.6097      2.00000
     96      -6.6081      2.00000
     97      -6.6075      2.00000
     98      -6.6052      2.00000
     99      -6.6049      2.00000
    100      -6.6042      2.00000
    101      -6.1754      2.00000
    102      -6.1731      2.00000
    103      -4.5098      2.00000
    104      -4.5090      2.00000
    105      -4.5078      2.00000
    106      -4.5071      2.00000
    107      -4.5037      2.00000
    108      -4.5035      2.00000
    109      -1.5163      0.00000
    110      -1.5161      0.00000
    111      -1.5126      0.00000
    112      -1.5124      0.00000
    113      -1.5115      0.00000
    114      -1.5112      0.00000
    115       0.4749      0.00000
    116       0.4758      0.00000
    117       0.4768      0.00000
    118       0.4794      0.00000
    119       0.4798      0.00000
    120       0.4829      0.00000
    121       0.5554      0.00000
    122       1.1281      0.00000
    123       1.1804      0.00000
    124       1.1830      0.00000
    125       1.4963      0.00000
    126       1.6872      0.00000
    127       1.9675      0.00000
    128       2.0424      0.00000
    129       2.0515      0.00000
    130       2.0549      0.00000
    131       2.0751      0.00000
    132       2.0990      0.00000
    133       2.2720      0.00000
    134       2.3479      0.00000
    135       2.3482      0.00000
    136       2.3488      0.00000
    137       2.3537      0.00000
    138       2.3622      0.00000
    139       2.3637      0.00000
    140       2.4631      0.00000
    141       2.6331      0.00000
    142       2.7196      0.00000
    143       2.7297      0.00000
    144       2.7345      0.00000
    145       2.7566      0.00000
    146       2.8214      0.00000
    147       2.8295      0.00000
    148       2.8300      0.00000
    149       2.8370      0.00000
    150       2.8816      0.00000
    151       3.4228      0.00000
    152       3.5295      0.00000
    153       3.6231      0.00000
    154       3.7414      0.00000
    155       3.8091      0.00000
    156       3.8130      0.00000
    157       3.8917      0.00000
    158       4.0314      0.00000
    159       4.0968      0.00000
    160       4.2245      0.00000
    161       4.4849      0.00000
    162       4.7675      0.00000
    163       4.8423      0.00000
    164       4.8631      0.00000
    165       4.8752      0.00000
    166       4.8753      0.00000
    167       4.8782      0.00000
    168       7.3651      0.00000


--------------------------------------------------------------------------------------------------------


 soft charge-density along one line, spin component           1
         0         1         2         3         4         5         6         7         8         9
 total charge-density along one line
 
 pseudopotential strength for first ion, spin component:           1
 12.639  21.267  -0.000   0.000   0.000  -0.000   0.000   0.000
 21.267  35.783  -0.000   0.000   0.000  -0.000   0.000   0.000
 -0.000  -0.000  -3.235  -0.000   0.000  -5.794   0.000   0.000
  0.000   0.000  -0.000  -3.235  -0.000   0.000  -5.793  -0.000
  0.000   0.000   0.000  -0.000  -3.235   0.000  -0.000  -5.794
 -0.000  -0.000  -5.794   0.000   0.000 -10.354   0.000   0.000
  0.000   0.000   0.000  -5.793  -0.000   0.000 -10.353  -0.000
  0.000   0.000   0.000  -0.000  -5.794   0.000  -0.000 -10.354
 total augmentation occupancy for first ion, spin component:           1
 10.264  -3.894  -0.000  -0.002   0.000   0.000   0.001  -0.000
 -3.894   1.507   0.000   0.001  -0.000  -0.000  -0.000   0.000
 -0.000   0.000   8.468  -0.009   0.000  -3.024   0.003  -0.000
 -0.002   0.001  -0.009   4.016  -0.000   0.003  -1.207   0.000
  0.000  -0.000   0.000  -0.000   8.468  -0.000   0.000  -3.024
  0.000  -0.000  -3.024   0.003  -0.000   1.093  -0.001   0.000
  0.001  -0.000   0.003  -1.207   0.000  -0.001   0.368  -0.000
 -0.000   0.000  -0.000   0.000  -3.024   0.000  -0.000   1.092


------------------------ aborting loop because EDIFF is reached ----------------------------------------


    FORLOC:  cpu time    0.1372: real time    0.1383
    FORNL :  cpu time    3.8327: real time    3.8640
    FORCOR:  cpu time    1.6130: real time    1.6229
    OFIELD:  cpu time    0.0029: real time    0.0029

 VOLUME and BASIS-vectors are now :
 -----------------------------------------------------------------------------
  energy-cutoff  :     1000.00
  volume of cell :     3288.85
      direct lattice vectors                 reciprocal lattice vectors
    12.325000000  0.000000000  0.000000000     0.081135903  0.046843835  0.000000000
    -6.162500000 10.673763102  0.000000000     0.000000000  0.093687670  0.000000000
     0.000000000  0.000000000 25.000000000     0.000000000  0.000000000  0.040000000

  length of vectors
    12.325000000 12.325000000 25.000000000     0.093687670  0.093687670  0.040000000


 FORCES acting on ions:
    Electron-Ion                     Ewald-Force                    Non-Local-Force
 -----------------------------------------------------------------------------------------------
   0.672E+01 0.586E+01 0.254E+02   -.673E+01 -.586E+01 -.254E+02   0.111E-01 -.207E-02 0.862E-02
   0.103E+02 0.502E+01 0.305E+02   -.103E+02 -.502E+01 -.304E+02   0.149E-01 -.699E-02 -.783E-02
   0.468E+01 0.123E+02 0.349E+02   -.467E+01 -.123E+02 -.349E+02   -.164E-02 0.275E-01 0.128E-01
   0.662E+01 0.963E+01 0.474E+02   -.664E+01 -.964E+01 -.474E+02   0.266E-01 0.831E-02 0.242E-01
   0.722E+01 0.170E+01 0.255E+02   -.722E+01 -.170E+01 -.255E+02   0.425E-02 -.115E-01 -.345E-02
   0.748E+01 -.138E+01 0.259E+02   -.747E+01 0.138E+01 -.259E+02   -.938E-02 0.193E-03 -.129E-01
   0.121E+02 0.455E+01 0.431E+02   -.121E+02 -.453E+01 -.431E+02   0.316E-01 -.317E-01 0.200E-02
   0.117E+02 -.413E+01 0.448E+02   -.117E+02 0.415E+01 -.448E+02   0.904E-02 -.174E-01 -.190E-01
   -.542E+01 0.111E+02 0.351E+02   0.544E+01 -.111E+02 -.351E+02   -.118E-01 -.359E-02 -.154E-01
   -.881E+01 0.744E+01 0.459E+02   0.885E+01 -.746E+01 -.459E+02   -.491E-01 0.302E-01 0.598E-02
   0.184E+01 -.172E+01 0.220E+02   -.183E+01 0.172E+01 -.220E+02   -.181E-03 -.703E-03 -.497E-02
   0.152E+01 -.126E+01 0.209E+02   -.152E+01 0.126E+01 -.209E+02   -.122E-01 0.535E-02 0.242E-02
   0.467E+01 -.103E+02 0.490E+02   -.471E+01 0.103E+02 -.490E+02   0.505E-01 -.227E-01 0.162E-02
   0.244E+01 -.123E+02 0.358E+02   -.246E+01 0.123E+02 -.357E+02   0.156E-01 -.199E-02 -.252E-01
   -.646E+01 0.402E+01 0.249E+02   0.646E+01 -.402E+01 -.249E+02   0.917E-02 -.446E-02 -.320E-02
   -.916E+01 0.266E+01 0.275E+02   0.917E+01 -.267E+01 -.275E+02   -.594E-02 0.103E-01 -.175E-01
   -.107E+01 -.428E+00 0.202E+02   0.108E+01 0.425E+00 -.202E+02   -.530E-02 0.205E-02 0.110E-02
   0.538E+00 0.381E+01 0.212E+02   -.533E+00 -.381E+01 -.212E+02   -.682E-02 0.388E-02 0.930E-02
   -.182E+01 -.110E+02 0.297E+02   0.181E+01 0.110E+02 -.297E+02   0.148E-01 -.721E-02 0.108E-02
   -.879E+00 -.580E+01 0.229E+02   0.871E+00 0.581E+01 -.229E+02   0.498E-02 -.496E-02 -.206E-02
   0.104E+02 -.457E+01 0.321E+02   -.104E+02 0.457E+01 -.321E+02   0.245E-02 -.717E-02 -.352E-01
   0.660E+01 -.559E+01 0.272E+02   -.660E+01 0.559E+01 -.272E+02   -.805E-02 0.759E-02 -.154E-01
   -.227E+01 0.454E+01 0.553E+02   0.228E+01 -.456E+01 -.553E+02   -.229E-01 0.220E-01 0.562E-01
   -.332E+01 -.715E+01 0.537E+02   0.331E+01 0.717E+01 -.537E+02   0.192E-01 -.310E-01 0.395E-01
   0.329E+01 -.138E+01 0.221E+02   -.328E+01 0.138E+01 -.221E+02   -.174E-02 -.499E-03 -.915E-02
   0.675E+00 0.292E+01 0.222E+02   -.670E+00 -.292E+01 -.222E+02   -.103E-01 0.592E-02 0.562E-03
   -.126E+02 0.166E+01 0.375E+02   0.126E+02 -.167E+01 -.375E+02   -.220E-02 0.163E-01 -.116E-01
   -.119E+02 -.485E+01 0.353E+02   0.119E+02 0.484E+01 -.353E+02   -.239E-01 0.167E-01 0.549E-02
   0.397E+01 -.802E+01 0.282E+02   -.398E+01 0.802E+01 -.281E+02   0.110E-01 0.214E-02 -.190E-01
   0.362E+00 -.320E+01 0.232E+02   -.367E+00 0.320E+01 -.232E+02   -.167E-02 0.417E-02 -.863E-02
   -.913E+01 -.967E+01 0.410E+02   0.915E+01 0.968E+01 -.410E+02   -.263E-01 -.163E-01 0.120E-01
   -.577E+01 -.106E+02 0.310E+02   0.578E+01 0.106E+02 -.310E+02   0.739E-03 -.136E-01 0.103E-01
   0.414E+00 0.165E+01 0.208E+02   -.419E+00 -.165E+01 -.208E+02   0.985E-02 -.691E-02 0.448E-02
   0.111E+01 0.164E+01 0.219E+02   -.112E+01 -.164E+01 -.219E+02   -.348E-03 0.183E-02 -.540E-02
   -.454E+01 0.642E+00 0.233E+02   0.454E+01 -.646E+00 -.233E+02   0.519E-02 -.487E-03 -.444E-03
   -.397E+01 -.163E+01 0.229E+02   0.397E+01 0.162E+01 -.229E+02   -.914E-02 0.569E-02 -.818E-03
   -.787E+01 -.409E+01 0.257E+02   0.789E+01 0.408E+01 -.257E+02   -.105E-01 0.266E-02 0.200E-02
   -.478E+01 -.385E+01 0.226E+02   0.479E+01 0.385E+01 -.226E+02   -.903E-02 0.208E-02 0.101E-01
   -.442E+01 -.574E+01 0.238E+02   0.443E+01 0.575E+01 -.238E+02   -.797E-02 -.318E-02 0.772E-02
   -.664E+00 -.142E+01 0.212E+02   0.664E+00 0.142E+01 -.212E+02   0.293E-02 -.116E-02 0.873E-02
   0.166E+01 0.406E+01 0.218E+02   -.166E+01 -.407E+01 -.218E+02   -.488E-02 0.616E-02 0.859E-02
   0.531E+01 0.831E+01 0.265E+02   -.531E+01 -.832E+01 -.265E+02   0.563E-02 0.496E-02 0.127E-01
   0.445E+00 0.703E+01 0.235E+02   -.436E+00 -.704E+01 -.235E+02   -.589E-02 0.632E-02 -.292E-03
   -.690E-01 0.119E+02 0.312E+02   0.841E-01 -.119E+02 -.312E+02   -.194E-01 0.964E-02 0.502E-02
   -.133E+01 0.260E+01 0.231E+02   0.133E+01 -.260E+01 -.231E+02   0.222E-02 -.381E-02 -.539E-02
   -.536E+01 0.670E+01 0.268E+02   0.537E+01 -.670E+01 -.268E+02   -.116E-01 0.203E-02 -.134E-01
   -.105E+01 -.283E+01 0.218E+02   0.104E+01 0.283E+01 -.219E+02   0.115E-01 -.276E-02 0.211E-02
   -.259E+01 0.102E+01 0.211E+02   0.258E+01 -.101E+01 -.211E+02   0.138E-02 0.177E-02 -.772E-02
   0.237E+00 -.177E+01 0.209E+02   -.241E+00 0.177E+01 -.210E+02   0.733E-02 -.418E-02 0.620E-02
   0.279E+01 0.202E+01 0.211E+02   -.279E+01 -.202E+01 -.211E+02   0.527E-02 0.955E-03 0.309E-02
   0.527E-01 -.323E-01 -.364E+03   -.513E-01 0.324E-01 0.364E+03   -.403E-02 0.254E-02 -.169E-01
   -.228E+03 0.155E+03 -.559E+03   0.279E+03 -.190E+03 0.563E+03   -.523E+02 0.356E+02 -.350E+01
   0.228E+03 -.155E+03 -.537E+03   -.279E+03 0.190E+03 0.534E+03   0.523E+02 -.356E+02 0.316E+01
 -----------------------------------------------------------------------------------------------
   0.511E-03 0.906E-02 0.335E+00   0.171E-12 -.142E-12 -.682E-12   -.805E-03 -.943E-02 -.331E+00
 
 
 POSITION                                       TOTAL-FORCE (eV/Angst)
 -----------------------------------------------------------------------------------
     11.98348      0.00342      0.01417         0.002878     -0.000755     -0.001845
     -0.34154      1.42665      0.01100        -0.002939     -0.000367     -0.003235
      2.12355      0.00315      0.01249        -0.001234      0.004645     -0.005892
      2.12326      1.42653      0.00641         0.007045     -0.001504     -0.002076
     10.75099      2.13819      0.01213         0.000847     -0.004818     -0.000085
     -1.57382      3.56123      0.01110        -0.007071      0.005296     -0.001635
      0.89078      2.13854      0.00548         0.004490     -0.013863      0.005112
      0.89099      3.56147      0.00181        -0.014024     -0.000282      0.015009
      4.58864      0.00346      0.01135         0.004914     -0.016622     -0.003097
      4.58894      1.42623      0.00646        -0.014748      0.008149      0.018071
      9.51854      4.27281      0.01369         0.007503     -0.003846     -0.000005
     -2.80632      5.69591      0.01434        -0.006814      0.003342      0.000709
      2.12300      4.27302      0.00000         0.016005     -0.001027      0.025726
      2.12335      5.69594      0.00581        -0.001953      0.010035     -0.001191
      7.05344      0.00333      0.01399         0.008006     -0.004647     -0.000599
      7.05353      1.42635      0.01368        -0.001954      0.004312     -0.003993
      8.28610      6.40752      0.01601         0.003687     -0.001323     -0.001060
     -4.03885      7.83070      0.01636        -0.002016      0.001303     -0.000608
      3.35586      6.40753      0.01007         0.003134      0.000505     -0.001681
      3.35599      7.83072      0.01320        -0.003301      0.000904     -0.000680
     -0.34146      4.27290      0.00723        -0.001061     -0.001114     -0.003653
     -0.34138      5.69591      0.00946        -0.008254      0.004705     -0.000998
      3.35624      2.13791      0.00222        -0.008867      0.007162      0.027888
      3.35573      3.56155      0.00139         0.010428     -0.009785      0.018893
     -1.57395      6.40758      0.01311         0.007195     -0.004268     -0.000833
     -1.57385      7.83068      0.01438        -0.004969      0.004065     -0.000139
      5.82093      2.13784      0.01033         0.017065      0.003277     -0.002345
      5.82114      3.56097      0.01156        -0.003233      0.005500     -0.003650
      0.89092      6.40755      0.00907         0.004044      0.001281     -0.001975
      0.89106      7.83068      0.01235        -0.007340      0.002744      0.000158
      4.58871      4.27293      0.00850        -0.006688     -0.003148     -0.008015
      4.58852      5.69606      0.01149         0.002131      0.002118     -0.004113
      9.51845      0.00337      0.01490         0.004874     -0.004930     -0.000043
      9.51855      1.42644      0.01438        -0.005045      0.006393     -0.000651
      8.28593      2.13803      0.01453         0.005434     -0.004214      0.000232
      8.28613      3.56115      0.01464        -0.004462      0.001769     -0.000229
      7.05356      4.27269      0.01457         0.004102     -0.000562     -0.000871
      7.05362      5.69588      0.01553        -0.002349      0.000865     -0.000634
      5.82112      6.40755      0.01489        -0.002107      0.002351     -0.000513
      5.82102      7.83073      0.01579         0.002814      0.000670     -0.000686
      7.05363      8.54227      0.01631        -0.004466      0.000627      0.000692
     -5.27149      9.96549      0.01495        -0.001044     -0.002868     -0.002927
     -2.80638      8.54234      0.01558         0.003483     -0.002121     -0.001559
     -2.80627      9.96553      0.01362        -0.004187     -0.000183     -0.004672
     -0.34149      8.54239      0.01378         0.005926     -0.003786     -0.000007
     -0.34138      9.96550      0.01354        -0.005646      0.001104     -0.001380
      2.12343      8.54232      0.01336         0.005771     -0.001788      0.000773
      2.12354      9.96544      0.01469        -0.006437      0.004662     -0.002272
      4.58846      8.54235      0.01505         0.003551     -0.002975      0.000679
      4.58853      9.96550      0.01517        -0.003420      0.003408     -0.000039
      3.04930      2.68154      4.20448        -0.002672      0.002658      0.010755
      4.02070      2.02068      4.26890        -1.417700      0.964491     -0.116509
      2.07767      3.34267      4.14503         1.420672     -0.967543      0.061701
 -----------------------------------------------------------------------------------
    total drift:                               -0.000293     -0.000367      0.003980


--------------------------------------------------------------------------------------------------------



  FREE ENERGIE OF THE ION-ELECTRON SYSTEM (eV)
  ---------------------------------------------------
  free  energy   TOTEN  =      -523.33854571 eV

  energy  without entropy=     -523.33854571  energy(sigma->0) =     -523.33854571
 


--------------------------------------------------------------------------------------------------------


    POTLOK:  cpu time    1.8882: real time    1.8988


--------------------------------------------------------------------------------------------------------


 writing wavefunctions
     LOOP+:  cpu time 1035.0185: real time 1043.5459
    4ORBIT:  cpu time    0.0000: real time    0.0000

 total amount of memory used by VASP MPI-rank0   698619. kBytes
=======================================================================

   base      :      30000. kBytes
   nonl-proj :     230539. kBytes
   fftplans  :      40716. kBytes
   grid      :     363125. kBytes
   one-center:        162. kBytes
   wavefun   :      34077. kBytes
 
  
  
 General timing and accounting informations for this job:
 ========================================================
  
                  Total CPU time used (sec):     1081.644
                            User time (sec):     1048.778
                          System time (sec):       32.866
                         Elapsed time (sec):     1091.492
  
                   Maximum memory used (kb):     1283000.
                   Average memory used (kb):          N/A
  
                          Minor page faults:       235975
                          Major page faults:           77
                 Voluntary context switches:         3832
