 vasp.6.2.1 16May21 (build Nov 06 2021 14:46:37) complex                        
  
 executed on             LinuxIFC date 2025.04.06  14:11:08
 running on  112 total cores
 distrk:  each k-point on   56 cores,    2 groups
 distr:  one band on NCORE=   1 cores,   56 groups


--------------------------------------------------------------------------------------------------------


 INCAR:
   ALGO = Conjugate
   KPAR = 2
   NCORE = 32
   ISMEAR = 0
   SIGMA = 0.01
   PREC = Accurate
   EDIFF = 1E-7
   ENCUT = 1000
   ISIF = 0
   METAGGA = R2SCAN
   LASPH = .TRUE.
   SYMPREC = 1E-7

 POTCAR:    PAW_PBE C_h 06Feb2004                 
 POTCAR:    PAW_PBE O_h 06Feb2004                 
 -----------------------------------------------------------------------------
|                                                                             |
|           W    W    AA    RRRRR   N    N  II  N    N   GGGG   !!!           |
|           W    W   A  A   R    R  NN   N  II  NN   N  G    G  !!!           |
|           W    W  A    A  R    R  N N  N  II  N N  N  G       !!!           |
|           W WW W  AAAAAA  RRRRR   N  N N  II  N  N N  G  GGG   !            |
|           WW  WW  A    A  R   R   N   NN  II  N   NN  G    G                |
|           W    W  A    A  R    R  N    N  II  N    N   GGGG   !!!           |
|                                                                             |
|     The value NCORE = 32 specified in the INCAR file was overwritten,       |
|     because it was not compatible with the 56 processes available:          |
|     NCORE = 1                                                               |
|     was used instead, please check that this makes sense for your           |
|     machine.                                                                |
|                                                                             |
 -----------------------------------------------------------------------------

 -----------------------------------------------------------------------------
|                                                                             |
|           W    W    AA    RRRRR   N    N  II  N    N   GGGG   !!!           |
|           W    W   A  A   R    R  NN   N  II  NN   N  G    G  !!!           |
|           W    W  A    A  R    R  N N  N  II  N N  N  G       !!!           |
|           W WW W  AAAAAA  RRRRR   N  N N  II  N  N N  G  GGG   !            |
|           WW  WW  A    A  R   R   N   NN  II  N   NN  G    G                |
|           W    W  A    A  R    R  N    N  II  N    N   GGGG   !!!           |
|                                                                             |
|     For optimal performance we recommend to set                             |
|       NCORE = 2 up to number-of-cores-per-socket                            |
|     NCORE specifies how many cores store one orbital (NPAR=cpu/NCORE).      |
|     This setting can greatly improve the performance of VASP for DFT.       |
|     The default, NCORE=1 might be grossly inefficient on modern             |
|     multi-core architectures or massively parallel machines. Do your        |
|     own testing! More info at https://www.vasp.at/wiki/index.php/NCORE      |
|     Unfortunately you need to use the default for GW and RPA                |
|     calculations (for HF NCORE is supported but not extensively tested      |
|     yet).                                                                   |
|                                                                             |
 -----------------------------------------------------------------------------

 POTCAR:    PAW_PBE C_h 06Feb2004                 
   VRHFIN =C: s2p2                                                                                  
   LEXCH  = PE                                                                                      
   EATOM  =   147.1560 eV,   10.8157 Ry                                                             
                                                                                                    
   TITEL  = PAW_PBE C_h 06Feb2004                                                                   
   LULTRA =        F    use ultrasoft PP ?                                                          
   IUNSCR =        1    unscreen: 0-lin 1-nonlin 2-no                                               
   RPACOR =    0.800    partial core radius                                                         
   POMASS =   12.011; ZVAL   =    4.000    mass and valenz                                          
   RCORE  =    1.100    outmost cutoff radius                                                       
   RWIGS  =    1.630; RWIGS  =    0.863    wigner-seitz radius (au A)                               
   ENMAX  =  700.000; ENMIN  =  500.000 eV                                                          
   ICORE  =        2    local potential                                                             
   LCOR   =        T    correct aug charges                                                         
   LPAW   =        T    paw PP                                                                      
   EAUG   =  946.768                                                                                
   DEXC   =    0.000                                                                                
   RMAX   =    1.128    core radius for proj-oper                                                   
   RAUG   =    1.300    factor for augmentation sphere                                              
   RDEP   =    1.162    radius for radial grids                                                     
   RDEPT  =    1.088    core radius for aug-charge                                                  
                                                                                                    
   Atomic configuration                                                                             
    4 entries                                                                                       
     n  l   j            E        occ.                                                              
     1  0  0.50      -273.3789   2.0000                                                             
     2  0  0.50       -13.7508   2.0000                                                             
     2  1  0.50        -5.2854   2.0000                                                             
     3  2  1.50        -5.4423   0.0000                                                             
   Description                                                                                      
     l       E           TYP  RCUT    TYP  RCUT                                                     
     0    -13.7508458     23  1.100                                                                 
     0     -8.2022199     23  1.100                                                                 
     1     -5.2854383     23  1.100                                                                 
     1      1.1560700     23  1.100                                                                 
     2     -5.4423304      7  1.100                                                                 
  local pseudopotential read in
  partial core-charges read in
  partial kinetic energy density read in
  atomic valenz-charges read in
  non local Contribution for L=           0  read in
    real space projection operators read in
  non local Contribution for L=           0  read in
    real space projection operators read in
  non local Contribution for L=           1  read in
    real space projection operators read in
  non local Contribution for L=           1  read in
    real space projection operators read in
    PAW grid and wavefunctions read in
 
   number of l-projection  operators is LMAX  =           4
   number of lm-projection operators is LMMAX =           8
 
 POTCAR:    PAW_PBE O_h 06Feb2004                 
   VRHFIN =O: s2p4                                                                                  
   LEXCH  = PE                                                                                      
   EATOM  =   432.3788 eV,   31.7789 Ry                                                             
                                                                                                    
   TITEL  = PAW_PBE O_h 06Feb2004                                                                   
   LULTRA =        F    use ultrasoft PP ?                                                          
   IUNSCR =        1    unscreen: 0-lin 1-nonlin 2-no                                               
   RPACOR =    0.800    partial core radius                                                         
   POMASS =   16.000; ZVAL   =    6.000    mass and valenz                                          
   RCORE  =    1.100    outmost cutoff radius                                                       
   RWIGS  =    1.400; RWIGS  =    0.741    wigner-seitz radius (au A)                               
   ENMAX  =  700.000; ENMIN  =  500.000 eV                                                          
   ICORE  =        2    local potential                                                             
   LCOR   =        T    correct aug charges                                                         
   LPAW   =        T    paw PP                                                                      
   EAUG   =  888.804                                                                                
   DEXC   =    0.000                                                                                
   RMAX   =    1.128    core radius for proj-oper                                                   
   RAUG   =    1.300    factor for augmentation sphere                                              
   RDEP   =    1.125    radius for radial grids                                                     
   RDEPT  =    1.088    core radius for aug-charge                                                  
                                                                                                    
   Atomic configuration                                                                             
    4 entries                                                                                       
     n  l   j            E        occ.                                                              
     1  0  0.50      -514.6923   2.0000                                                             
     2  0  0.50       -23.9615   2.0000                                                             
     2  1  0.50        -9.0305   4.0000                                                             
     3  2  1.50        -9.5241   0.0000                                                             
   Description                                                                                      
     l       E           TYP  RCUT    TYP  RCUT                                                     
     0    -23.9615319     23  1.100                                                                 
     0    -25.3221145     23  1.100                                                                 
     1     -9.0304911     23  1.100                                                                 
     1     -5.4802209     23  1.100                                                                 
     2     -9.5240782      7  1.100                                                                 
  local pseudopotential read in
  partial core-charges read in
  partial kinetic energy density read in
  atomic valenz-charges read in
  non local Contribution for L=           0  read in
    real space projection operators read in
  non local Contribution for L=           0  read in
    real space projection operators read in
  non local Contribution for L=           1  read in
    real space projection operators read in
  non local Contribution for L=           1  read in
    real space projection operators read in
    PAW grid and wavefunctions read in
 
   number of l-projection  operators is LMAX  =           4
   number of lm-projection operators is LMMAX =           8
 
 -----------------------------------------------------------------------------
|                                                                             |
|               ----> ADVICE to this user running VASP <----                  |
|                                                                             |
|     You have a (more or less) 'large supercell' and for larger cells it     |
|     might be more efficient to use real-space projection operators.         |
|     Therefore, try LREAL= Auto in the INCAR file.                           |
|     Mind: For very accurate calculation, you might also keep the            |
|     reciprocal projection scheme (i.e. LREAL=.FALSE.).                      |
|                                                                             |
 -----------------------------------------------------------------------------

  PAW_PBE C_h 06Feb2004                 :
 energy of atom  1       EATOM= -147.1560
 kinetic energy error for atom=    0.0031 (will be added to EATOM!!)
  PAW_PBE O_h 06Feb2004                 :
 energy of atom  2       EATOM= -432.3788
 kinetic energy error for atom=    0.0171 (will be added to EATOM!!)
 
 
 POSCAR:  C  O
  positions in cartesian coordinates
  No initial velocities read in

 METAGGA = R2SCA    LMAXTAU =  6    LMIXTAU =  F

 exchange correlation table for  LEXCH =        8
   RHO(1)=    0.500       N(1)  =     2000
   RHO(2)=  100.500       N(2)  =     4000
 


--------------------------------------------------------------------------------------------------------


 ion  position               nearest neighbor table
   1  0.972  0.000  0.001-  50 1.42   2 1.42  42 1.42
   2  0.039  0.134  0.001-   5 1.42   7 1.42   1 1.42
   3  0.172  0.000  0.001-  42 1.42  44 1.42   4 1.42
   4  0.239  0.134  0.000-   7 1.42   3 1.42  23 1.42
   5  0.972  0.200  0.001-   6 1.42   2 1.42  34 1.42
   6  0.039  0.334  0.001-   5 1.42  21 1.42  11 1.42
   7  0.172  0.200  0.000-   8 1.42   2 1.42   4 1.42
   8  0.239  0.334  0.000-  13 1.42   7 1.42  21 1.42
   9  0.372  0.000  0.001-  10 1.42  44 1.42  46 1.42
  10  0.439  0.134  0.000-  27 1.42   9 1.42  23 1.42
  11  0.972  0.400  0.001-  12 1.42  36 1.42   6 1.42
  12  0.039  0.534  0.001-  25 1.42  11 1.42  17 1.42
  13  0.372  0.400  0.000-   8 1.42  14 1.42  24 1.42
  14  0.439  0.534  0.000-  13 1.42  29 1.42  19 1.42
  15  0.572  0.000  0.001-  46 1.42  16 1.42  48 1.42
  16  0.639  0.134  0.001-  15 1.42  35 1.42  27 1.42
  17  0.972  0.600  0.001-  38 1.42  18 1.42  12 1.42
  18  0.039  0.734  0.001-  43 1.42  41 1.42  17 1.42
  19  0.572  0.600  0.001-  14 1.42  20 1.42  32 1.42
  20  0.639  0.734  0.001-  49 1.42  19 1.42  47 1.42
  21  0.172  0.400  0.000-  22 1.42   8 1.42   6 1.42
  22  0.239  0.534  0.000-  21 1.42  29 1.42  25 1.42
  23  0.372  0.200  0.000-  10 1.42   4 1.42  24 1.42
  24  0.439  0.334  0.000-  13 1.42  31 1.42  23 1.42
  25  0.172  0.600  0.001-  26 1.42  12 1.42  22 1.42
  26  0.239  0.734  0.001-  25 1.42  45 1.42  43 1.42
  27  0.572  0.200  0.001-  10 1.42  28 1.42  16 1.42
  28  0.639  0.334  0.001-  27 1.42  37 1.42  31 1.42
  29  0.372  0.600  0.000-  22 1.42  14 1.42  30 1.42
  30  0.439  0.734  0.001-  47 1.42  29 1.42  45 1.42
  31  0.572  0.400  0.000-  32 1.42  28 1.42  24 1.42
  32  0.639  0.534  0.001-  31 1.42  39 1.42  19 1.42
  33  0.772  0.000  0.001-  34 1.42  48 1.42  50 1.42
  34  0.839  0.134  0.001-  33 1.42   5 1.42  35 1.42
  35  0.772  0.200  0.001-  36 1.42  16 1.42  34 1.42
  36  0.839  0.334  0.001-  35 1.42  11 1.42  37 1.42
  37  0.772  0.400  0.001-  28 1.42  38 1.42  36 1.42
  38  0.839  0.534  0.001-  17 1.42  37 1.42  39 1.42
  39  0.772  0.600  0.001-  40 1.42  38 1.42  32 1.42
  40  0.839  0.734  0.001-  39 1.42  49 1.42  41 1.42
  41  0.972  0.800  0.001-  18 1.42  42 1.42  40 1.42
  42  0.039  0.934  0.001-   3 1.42  41 1.42   1 1.42
  43  0.172  0.800  0.001-  18 1.42  44 1.42  26 1.42
  44  0.239  0.934  0.001-   9 1.42  43 1.42   3 1.42
  45  0.372  0.800  0.001-  26 1.42  46 1.42  30 1.42
  46  0.439  0.934  0.001-  15 1.42  45 1.42   9 1.42
  47  0.572  0.800  0.001-  30 1.42  48 1.42  20 1.42
  48  0.639  0.934  0.001-  47 1.42  33 1.42  15 1.42
  49  0.772  0.800  0.001-  50 1.42  20 1.42  40 1.42
  50  0.839  0.934  0.001-  49 1.42   1 1.42  33 1.42
  51  0.373  0.251  0.420-  52 1.18  53 1.18
  52  0.421  0.189  0.424-  51 1.18
  53  0.325  0.313  0.417-  51 1.18
 
  LATTYP: Found a hexagonal cell.
 ALAT       =    12.3250000000
 C/A-ratio  =     1.6227180527
  
  Lattice vectors:
  
 A1 = (  12.3250000000,   0.0000000000,   0.0000000000)
 A2 = (  -6.1625000000,  10.6737631016,   0.0000000000)
 A3 = (   0.0000000000,   0.0000000000,  20.0000000000)


Analysis of symmetry for initial positions (statically):
=====================================================================
 Subroutine PRICEL returns:
 Original cell was already a primitive cell.
 

 Routine SETGRP: Setting up the symmetry group for a 
 hexagonal supercell.


 Subroutine GETGRP returns: Found  1 space group operations
 (whereof  1 operations were pure point group operations)
 out of a pool of 24 trial point group operations.


The static configuration has the point symmetry C_1 .


Analysis of symmetry for dynamics (positions and initial velocities):
=====================================================================
 Subroutine PRICEL returns:
 Original cell was already a primitive cell.
 

 Routine SETGRP: Setting up the symmetry group for a 
 hexagonal supercell.


 Subroutine GETGRP returns: Found  1 space group operations
 (whereof  1 operations were pure point group operations)
 out of a pool of 24 trial point group operations.


The dynamic configuration has the point symmetry C_1 .


 Subroutine INISYM returns: Found  1 space group operations
 (whereof  1 operations are pure point group operations),
 and found     1 'primitive' translations


----------------------------------------------------------------------------------------

                                     Primitive cell                                     

  volume of cell :    2631.0826

  direct lattice vectors                    reciprocal lattice vectors
    12.325000000  0.000000000  0.000000000     0.081135903  0.046843835  0.000000000
    -6.162500000 10.673763102  0.000000000     0.000000000  0.093687670  0.000000000
     0.000000000  0.000000000 20.000000000     0.000000000  0.000000000  0.050000000

  length of vectors
    12.325000000 12.325000000 20.000000000     0.093687670  0.093687670  0.050000000

  position of ions in fractional coordinates (direct lattice)
     0.972450841  0.000320818  0.000708389
     0.039118382  0.133659505  0.000550216
     0.172443627  0.000295449  0.000624535
     0.239096278  0.133647917  0.000320585
     0.972452058  0.200322012  0.000606523
     0.039128360  0.333643771  0.000555187
     0.172451764  0.200354552  0.000273959
     0.239124359  0.333665720  0.000090325
     0.372465565  0.000324403  0.000567391
     0.439137473  0.133619939  0.000322923
     0.972449824  0.400309362  0.000684513
     0.039124981  0.533636789  0.000716763
     0.372416176  0.400329481  0.000000000
     0.439099602  0.533638981  0.000290518
     0.572443676  0.000312125  0.000699475
     0.639110207  0.133631751  0.000684093
     0.972452703  0.600305653  0.000800361
     0.039124495  0.733640359  0.000818141
     0.572433471  0.600306242  0.000503618
     0.639111888  0.733641879  0.000659881
     0.172454630  0.400318228  0.000361306
     0.239120185  0.533636548  0.000473136
     0.372459750  0.200295993  0.000111246
     0.439107096  0.333673419  0.000069702
     0.172452155  0.600311506  0.000655425
     0.239123371  0.733638574  0.000718912
     0.572431082  0.200289171  0.000516621
     0.639112773  0.333618630  0.000577970
     0.372439808  0.600308022  0.000453556
     0.439116090  0.733637858  0.000617737
     0.572469358  0.400320504  0.000424897
     0.639119408  0.533650873  0.000574513
     0.772445723  0.000315427  0.000745201
     0.839116277  0.133640203  0.000719132
     0.772440513  0.200307432  0.000726291
     0.839120241  0.333635728  0.000731834
     0.772446320  0.400298367  0.000728722
     0.839118980  0.533633964  0.000776376
     0.772456143  0.600308173  0.000744639
     0.839115033  0.733643180  0.000789390
     0.972455313  0.800305582  0.000815291
     0.039114714  0.933643289  0.000747563
     0.172457971  0.800312211  0.000779216
     0.239134551  0.933647193  0.000681063
     0.372451396  0.800316674  0.000689249
     0.439124489  0.933644769  0.000676788
     0.572441101  0.800310054  0.000668168
     0.639115067  0.933638985  0.000734556
     0.772445098  0.800313187  0.000752577
     0.839116614  0.933644338  0.000758538
     0.373021009  0.251226878  0.420448208
     0.420879805  0.189313152  0.423669301
     0.325156981  0.313167186  0.417475464

  ion indices of the primitive-cell ions
   primitive index   ion index
                 1           1
                 2           2
                 3           3
                 4           4
                 5           5
                 6           6
                 7           7
                 8           8
                 9           9
                10          10
                11          11
                12          12
                13          13
                14          14
                15          15
                16          16
                17          17
                18          18
                19          19
                20          20
                21          21
                22          22
                23          23
                24          24
                25          25
                26          26
                27          27
                28          28
                29          29
                30          30
                31          31
                32          32
                33          33
                34          34
                35          35
                36          36
                37          37
                38          38
                39          39
                40          40
                41          41
                42          42
                43          43
                44          44
                45          45
                46          46
                47          47
                48          48
                49          49
                50          50
                51          51
                52          52
                53          53

----------------------------------------------------------------------------------------

 
 
 KPOINTS: auto                                    

Automatic generation of k-mesh.
 Grid dimensions read from file:
 generate k-points for:    1    1    1

 Generating k-lattice:

  Cartesian coordinates                     Fractional coordinates (reciprocal lattice)
     0.081135903  0.046843835  0.000000000     1.000000000 -0.000000000  0.000000000
     0.000000000  0.093687670  0.000000000     0.000000000  1.000000000  0.000000000
     0.000000000  0.000000000  0.050000000     0.000000000  0.000000000  1.000000000

  Length of vectors
     0.093687670  0.093687670  0.050000000

  Shift w.r.t. Gamma in fractional coordinates (k-lattice)
     0.000000000  0.000000000  0.000000000

 
 Subroutine IBZKPT returns following result:
 ===========================================
 
 Found      1 irreducible k-points:
 
 Following reciprocal coordinates:
            Coordinates               Weight
  0.000000  0.000000  0.000000      1.000000
 
 Following cartesian coordinates:
            Coordinates               Weight
  0.000000  0.000000  0.000000      1.000000
 


--------------------------------------------------------------------------------------------------------




 Dimension of arrays:
   k-points           NKPTS =      1   k-points in BZ     NKDIM =      1   number of bands    NBANDS=    168
   number of dos      NEDOS =    301   number of ions     NIONS =     53
   non local maximal  LDIM  =      4   non local SUM 2l+1 LMDIM =      8
   total plane-waves  NPLWV = ******
   max r-space proj   IRMAX =      1   max aug-charges    IRDMAX=   9736
   dimension x,y,z NGX =   128 NGY =  128 NGZ =  210
   dimension x,y,z NGXF=   256 NGYF=  256 NGZF=  420
   support grid    NGXF=   256 NGYF=  256 NGZF=  420
   ions per type =              51   2
   NGX,Y,Z   is equivalent  to a cutoff of  17.27, 17.27, 17.46 a.u.
   NGXF,Y,Z  is equivalent  to a cutoff of  34.53, 34.53, 34.91 a.u.

 SYSTEM =  unknown system                          
 POSCAR =   C  O                                   

 Startparameter for this run:
   NWRITE =      2    write-flag & timer
   PREC   = accura    normal or accurate (medium, high low for compatibility)
   ISTART =      0    job   : 0-new  1-cont  2-samecut
   ICHARG =      2    charge: 1-file 2-atom 10-const
   ISPIN  =      1    spin polarized calculation?
   LNONCOLLINEAR =      F non collinear calculations
   LSORBIT =      F    spin-orbit coupling
   INIWAV =      1    electr: 0-lowe 1-rand  2-diag
   LASPH  =      T    aspherical Exc in radial PAW
 Electronic Relaxation 1
   ENCUT  = 1000.0 eV  73.50 Ry    8.57 a.u.  31.78 31.78 51.57*2*pi/ulx,y,z
   ENINI  = 1000.0     initial cutoff
   ENAUG  =  946.8 eV  augmentation charge cutoff
   NELM   =     60;   NELMIN=  2; NELMDL= -5     # of ELM steps 
   EDIFF  = 0.1E-06   stopping-criterion for ELM
   LREAL  =      F    real-space projection
   NLSPLINE    = F    spline interpolate recip. space projectors
   LCOMPAT=      F    compatible to vasp.4.4
   GGA_COMPAT  = T    GGA compatible to vasp.4.4-vasp.4.6
   LMAXPAW     = -100 max onsite density
   LMAXMIX     =    2 max onsite mixed and CHGCAR
   VOSKOWN=      0    Vosko Wilk Nusair interpolation
   ROPT   =    0.00000   0.00000
 Ionic relaxation
   EDIFFG = 0.1E-05   stopping-criterion for IOM
   NSW    =      0    number of steps for IOM
   NBLOCK =      1;   KBLOCK =      1    inner block; outer block 
   IBRION =     -1    ionic relax: 0-MD 1-quasi-New 2-CG
   NFREE  =      0    steps in history (QN), initial steepest desc. (CG)
   ISIF   =      0    stress and relaxation
   IWAVPR =     10    prediction:  0-non 1-charg 2-wave 3-comb
   ISYM   =      2    0-nonsym 1-usesym 2-fastsym
   LCORR  =      T    Harris-Foulkes like correction to forces

   POTIM  = 0.5000    time-step for ionic-motion
   TEIN   =    0.0    initial temperature
   TEBEG  =    0.0;   TEEND  =   0.0 temperature during run
   SMASS  =  -3.00    Nose mass-parameter (am)
   estimated Nose-frequenzy (Omega)   =  0.10E-29 period in steps = 0.13E+47 mass=  -0.347E-26a.u.
   SCALEE = 1.0000    scale energy and forces
   NPACO  =    256;   APACO  = 16.0  distance and # of slots for P.C.
   PSTRESS=    0.0 pullay stress

  Mass of Ions in am
   POMASS =  12.01 16.00
  Ionic Valenz
   ZVAL   =   4.00  6.00
  Atomic Wigner-Seitz radii
   RWIGS  =  -1.00 -1.00
  virtual crystal weights 
   VCA    =   1.00  1.00
   NELECT =     216.0000    total number of electrons
   NUPDOWN=      -1.0000    fix difference up-down

 DOS related values:
   EMIN   =  10.00;   EMAX   =-10.00  energy-range for DOS
   EFERMI =   0.00
   ISMEAR =     0;   SIGMA  =   0.01  broadening in eV -4-tet -1-fermi 0-gaus

 Electronic relaxation 2 (details)
   IALGO  =     58    algorithm
   LDIAG  =      T    sub-space diagonalisation (order eigenvalues)
   LSUBROT=      F    optimize rotation matrix (better conditioning)
   TURBO    =      0    0=normal 1=particle mesh
   IRESTART =      0    0=no restart 2=restart with 2 vectors
   NREBOOT  =      0    no. of reboots
   NMIN     =      0    reboot dimension
   EREF     =   0.00    reference energy to select bands
   IMIX   =      4    mixing-type and parameters
     AMIX     =   0.40;   BMIX     =  1.00
     AMIX_MAG =   1.60;   BMIX_MAG =  1.00
     AMIN     =   0.10
     WC   =   100.;   INIMIX=   1;  MIXPRE=   1;  MAXMIX= -45

 Intra band minimization:
   WEIMIN = 0.0000     energy-eigenvalue tresh-hold
   EBREAK =  0.15E-09  absolut break condition
   DEPER  =   0.30     relativ break condition  

   TIME   =   0.40     timestep for ELM

  volume/ion in A,a.u.               =      49.64       335.01
  Fermi-wavevector in a.u.,A,eV,Ry     =   0.711510  1.344560  6.887909  0.506247
  Thomas-Fermi vector in A             =   1.798641
 
 Write flags
   LWAVE        =      T    write WAVECAR
   LDOWNSAMPLE  =      F    k-point downsampling of WAVECAR
   LCHARG       =      T    write CHGCAR
   LVTOT        =      F    write LOCPOT, total local potential
   LVHAR        =      F    write LOCPOT, Hartree potential only
   LELF         =      F    write electronic localiz. function (ELF)
   LORBIT       =      0    0 simple, 1 ext, 2 COOP (PROOUT), +10 PAW based schemes


 Dipole corrections
   LMONO  =      F    monopole corrections only (constant potential shift)
   LDIPOL =      F    correct potential (dipole corrections)
   IDIPOL =      0    1-x, 2-y, 3-z, 4-all directions 
   EPSILON=  1.0000000 bulk dielectric constant

 Exchange correlation treatment:
   GGA     =    --    GGA type
   LEXCH   =     8    internal setting for exchange type
   VOSKOWN=      0    Vosko Wilk Nusair interpolation
   LHFCALC =     F    Hartree Fock is set to
   LHFONE  =     F    Hartree Fock one center treatment
   AEXX    =    0.0000 exact exchange contribution

 Linear response parameters
   LEPSILON=     F    determine dielectric tensor
   LRPA    =     F    only Hartree local field effects (RPA)
   LNABLA  =     F    use nabla operator in PAW spheres
   LVEL    =     F    velocity operator in full k-point grid
   LINTERFAST=   F  fast interpolation
   KINTER  =     0    interpolate to denser k-point grid
   CSHIFT  =0.1000    complex shift for real part using Kramers Kronig
   OMEGAMAX=  -1.0    maximum frequency
   DEG_THRESHOLD= 0.2000000E-02 threshold for treating states as degnerate
   RTIME   =   -0.100 relaxation time in fs
  (WPLASMAI=    0.000 imaginary part of plasma frequency in eV, 0.658/RTIME)
   DFIELD  = 0.0000000 0.0000000 0.0000000 field for delta impulse in time
 
 Orbital magnetization related:
   ORBITALMAG=     F  switch on orbital magnetization
   LCHIMAG   =     F  perturbation theory with respect to B field
   DQ        =  0.001000  dq finite difference perturbation B field
   LLRAUG    =     F  two centre corrections for induced B field



--------------------------------------------------------------------------------------------------------


 Static calculation
 charge density and potential will be updated during run
 non-spin polarized calculation
 Conjugate gradient for all bands (Freysoldt, et al. PRB 79, 241103 (2009))
 preconditioned conjugated gradient                                        
 perform sub-space diagonalisation
    before iterative eigenvector-optimisation
 modified Broyden-mixing scheme, WC =      100.0
 initial mixing is a Kerker type mixing with AMIX =  0.4000 and BMIX =      1.0000
 Hartree-type preconditioning will be used
 using additional bands           60
 reciprocal scheme for non local part
 use partial core corrections
 no Harris-corrections to forces 
 use gradient corrections 
 use of overlap-Matrix (Vanderbilt PP)
 Gauss-broadening in eV      SIGMA  =   0.01


--------------------------------------------------------------------------------------------------------


  energy-cutoff  :     1000.00
  volume of cell :     2631.08
      direct lattice vectors                 reciprocal lattice vectors
    12.325000000  0.000000000  0.000000000     0.081135903  0.046843835  0.000000000
    -6.162500000 10.673763102  0.000000000     0.000000000  0.093687670  0.000000000
     0.000000000  0.000000000 20.000000000     0.000000000  0.000000000  0.050000000

  length of vectors
    12.325000000 12.325000000 20.000000000     0.093687670  0.093687670  0.050000000


 
 k-points in units of 2pi/SCALE and weight: auto                                    
   0.00000000  0.00000000  0.00000000       1.000
 
 k-points in reciprocal lattice and weights: auto                                    
   0.00000000  0.00000000  0.00000000       1.000
 
 position of ions in fractional coordinates (direct lattice) 
   0.97245084  0.00032082  0.00070839
   0.03911838  0.13365950  0.00055022
   0.17244363  0.00029545  0.00062454
   0.23909628  0.13364792  0.00032058
   0.97245206  0.20032201  0.00060652
   0.03912836  0.33364377  0.00055519
   0.17245176  0.20035455  0.00027396
   0.23912436  0.33366572  0.00009033
   0.37246557  0.00032440  0.00056739
   0.43913747  0.13361994  0.00032292
   0.97244982  0.40030936  0.00068451
   0.03912498  0.53363679  0.00071676
   0.37241618  0.40032948  0.00000000
   0.43909960  0.53363898  0.00029052
   0.57244368  0.00031213  0.00069947
   0.63911021  0.13363175  0.00068409
   0.97245270  0.60030565  0.00080036
   0.03912449  0.73364036  0.00081814
   0.57243347  0.60030624  0.00050362
   0.63911189  0.73364188  0.00065988
   0.17245463  0.40031823  0.00036131
   0.23912018  0.53363655  0.00047314
   0.37245975  0.20029599  0.00011125
   0.43910710  0.33367342  0.00006970
   0.17245216  0.60031151  0.00065542
   0.23912337  0.73363857  0.00071891
   0.57243108  0.20028917  0.00051662
   0.63911277  0.33361863  0.00057797
   0.37243981  0.60030802  0.00045356
   0.43911609  0.73363786  0.00061774
   0.57246936  0.40032050  0.00042490
   0.63911941  0.53365087  0.00057451
   0.77244572  0.00031543  0.00074520
   0.83911628  0.13364020  0.00071913
   0.77244051  0.20030743  0.00072629
   0.83912024  0.33363573  0.00073183
   0.77244632  0.40029837  0.00072872
   0.83911898  0.53363396  0.00077638
   0.77245614  0.60030817  0.00074464
   0.83911503  0.73364318  0.00078939
   0.97245531  0.80030558  0.00081529
   0.03911471  0.93364329  0.00074756
   0.17245797  0.80031221  0.00077922
   0.23913455  0.93364719  0.00068106
   0.37245140  0.80031667  0.00068925
   0.43912449  0.93364477  0.00067679
   0.57244110  0.80031005  0.00066817
   0.63911507  0.93363899  0.00073456
   0.77244510  0.80031319  0.00075258
   0.83911661  0.93364434  0.00075854
   0.37302101  0.25122688  0.42044821
   0.42087980  0.18931315  0.42366930
   0.32515698  0.31316719  0.41747546
 
 position of ions in cartesian coordinates  (Angst):
  11.98347958  0.00342433  0.01416777
  -0.34154264  1.42664989  0.01100432
   2.12354700  0.00315355  0.01249070
   2.12325634  1.42652621  0.00641170
  10.75098721  2.13818970  0.01213047
  -1.57382270  3.56123457  0.01110375
   0.89078307  2.13853702  0.00547917
   0.89099273  3.56146885  0.00180651
   4.58863896  0.00346260  0.01134782
   4.58893648  1.42622757  0.00645846
   9.51853763  4.27280730  0.01369027
  -2.80632132  5.69591267  0.01433526
   2.12299894  4.27302204  0.00000000
   2.12335237  5.69593607  0.00581036
   7.05344483  0.00333155  0.01398950
   7.05352764  1.42635365  0.01368187
   8.28609598  6.40752033  0.01600723
  -4.03884931  7.83070339  0.01636283
   3.35585531  6.40752662  0.01007237
   3.35598594  7.83071962  0.01319763
  -0.34145776  4.27290193  0.00722612
  -0.34137895  5.69591010  0.00946273
   3.35624236  2.13791198  0.00222492
   3.35573251  3.56155103  0.00139405
  -1.57394684  6.40758280  0.01310850
  -1.57385216  7.83068434  0.01437823
   5.82093107  2.13783916  0.01033241
   5.82114012  3.56096622  0.01155939
   0.89092245  6.40754561  0.00907111
   0.89106251  7.83067670  0.01235474
   4.58870974  4.27292622  0.00849795
   4.58852320  5.69606300  0.01149026
   9.51844972  0.00336679  0.01490402
   9.51855036  1.42644387  0.01438264
   8.28593477  2.13803408  0.01452582
   8.28612680  3.56114872  0.01463668
   7.05356221  4.27268994  0.01457444
   7.05362213  5.69588251  0.01552751
   5.82112285  6.40754723  0.01489279
   5.82101669  7.83073350  0.01578780
   7.05362858  8.54227219  0.01630582
  -5.27148792  9.96548729  0.01495127
  -2.80637951  8.54234295  0.01558431
  -2.80626749  9.96552896  0.01362126
  -0.34148805  8.54239058  0.01378498
  -0.34137657  9.96550309  0.01353576
   2.12342586  8.54231992  0.01336337
   2.12354296  9.96544135  0.01469111
   4.58845581  8.54235337  0.01505154
   4.58852904  9.96549848  0.01517076
   3.04929830  2.68153618  8.40896415
   4.02070129  2.02068374  8.47338601
   2.07766701  3.34267235  8.34950928
 


--------------------------------------------------------------------------------------------------------


 k-point   1 :   0.0000 0.0000 0.0000  plane waves:  189031

 maximum and minimum number of plane-waves per node :    189031   189031

 maximum number of plane-waves:    189031
 maximum index in each direction: 
   IXMAX=   31   IYMAX=   31   IZMAX=   51
   IXMIN=  -31   IYMIN=  -31   IZMIN=  -51


 serial   3D FFT for wavefunctions
 parallel 3D FFT for charge:
    minimum data exchange during FFTs selected (reduces bandwidth)


 total amount of memory used by VASP MPI-rank0   556209. kBytes
=======================================================================

   base      :      30000. kBytes
   nonl-proj :     184518. kBytes
   fftplans  :      31725. kBytes
   grid      :     282516. kBytes
   one-center:        162. kBytes
   wavefun   :      27288. kBytes
 
     INWAV:  cpu time    0.0000: real time    0.0000
 Broyden mixing: mesh for mixing (old mesh)
   NGX = 63   NGY = 63   NGZ =103
  (NGX  =256   NGY  =256   NGZ  =420)
  gives a total of 408807 points

 initial charge density was supplied:
 charge density of overlapping atoms calculated
 number of electron     216.0000000 magnetization 
 keeping initial charge density in first step


--------------------------------------------------------------------------------------------------------


 Maximum index for augmentation-charges          459 (set IRDMAX)


--------------------------------------------------------------------------------------------------------


 First call to EWALD:  gamma=   0.128
 Maximum number of real-space cells 3x 3x 2
 Maximum number of reciprocal cells 3x 3x 4

    FEWALD:  cpu time    0.0023: real time    0.0023


--------------------------------------- Iteration      1(   1)  ---------------------------------------


    POTLOK:  cpu time    1.2730: real time    1.2809
    SETDIJ:  cpu time    0.1808: real time    0.1814
    TRIAL :  cpu time   21.8533: real time   22.0196
    CORREC:  cpu time    0.0015: real time    0.0017
    --------------------------------------------
      LOOP:  cpu time   23.3128: real time   23.5196

 eigenvalue-minimisations  :   336
 total energy-change (2. order) : 0.2410409E+04  (-0.1180535E+05)
 number of electron     216.0000000 magnetization 
 augmentation part      216.0000000 magnetization 

 Free energy of the ion-electron system (eV)
  ---------------------------------------------------
  alpha Z        PSCENC =        59.93625244
  Ewald energy   TEWEN  =     29491.81118182
  -Hartree energ DENC   =    -35667.26840410
  -exchange      EXHF   =         0.00000000
  -V(xc)+E(xc)   XCENC  =       605.05768432
  PAW double counting   =      6340.10990386    -6200.63067283
  entropy T*S    EENTRO =        -0.01111655
  eigenvalues    EBANDS =      -588.11945961
  atomic energy  EATOM  =      8369.52358910
  ---------------------------------------------------
  free energy    TOTEN  =      2410.40895845 eV

  energy without entropy =     2410.42007500  energy(sigma->0) =     2410.41451673


--------------------------------------------------------------------------------------------------------




--------------------------------------- Iteration      1(   2)  ---------------------------------------


    TRIAL :  cpu time   31.0914: real time   31.3291
    CORREC:  cpu time    0.0001: real time    0.0001
    --------------------------------------------
      LOOP:  cpu time   31.1393: real time   31.3841

 eigenvalue-minimisations  :   560
 total energy-change (2. order) :-0.2435722E+04  (-0.2303792E+04)
 number of electron     216.0000000 magnetization 
 augmentation part      216.0000000 magnetization 

 Free energy of the ion-electron system (eV)
  ---------------------------------------------------
  alpha Z        PSCENC =        59.93625244
  Ewald energy   TEWEN  =     29491.81118182
  -Hartree energ DENC   =    -35667.26840410
  -exchange      EXHF   =         0.00000000
  -V(xc)+E(xc)   XCENC  =       605.05768432
  PAW double counting   =      6340.10990386    -6200.63067283
  entropy T*S    EENTRO =        -0.00000000
  eigenvalues    EBANDS =     -3023.85266617
  atomic energy  EATOM  =      8369.52358910
  ---------------------------------------------------
  free energy    TOTEN  =       -25.31313156 eV

  energy without entropy =      -25.31313156  energy(sigma->0) =      -25.31313156


--------------------------------------------------------------------------------------------------------




--------------------------------------- Iteration      1(   3)  ---------------------------------------


    TRIAL :  cpu time   26.4499: real time   26.6635
    CORREC:  cpu time    0.0001: real time    0.0001
    --------------------------------------------
      LOOP:  cpu time   26.4812: real time   26.6957

 eigenvalue-minimisations  :   448
 total energy-change (2. order) :-0.5560961E+03  (-0.5529094E+03)
 number of electron     216.0000000 magnetization 
 augmentation part      216.0000000 magnetization 

 Free energy of the ion-electron system (eV)
  ---------------------------------------------------
  alpha Z        PSCENC =        59.93625244
  Ewald energy   TEWEN  =     29491.81118182
  -Hartree energ DENC   =    -35667.26840410
  -exchange      EXHF   =         0.00000000
  -V(xc)+E(xc)   XCENC  =       605.05768432
  PAW double counting   =      6340.10990386    -6200.63067283
  entropy T*S    EENTRO =        -0.00000000
  eigenvalues    EBANDS =     -3579.94878482
  atomic energy  EATOM  =      8369.52358910
  ---------------------------------------------------
  free energy    TOTEN  =      -581.40925021 eV

  energy without entropy =     -581.40925021  energy(sigma->0) =     -581.40925021


--------------------------------------------------------------------------------------------------------




--------------------------------------- Iteration      1(   4)  ---------------------------------------


    TRIAL :  cpu time   26.4282: real time   26.6388
    CORREC:  cpu time    0.0001: real time    0.0001
    --------------------------------------------
      LOOP:  cpu time   26.4854: real time   26.6998

 eigenvalue-minimisations  :   448
 total energy-change (2. order) :-0.2547431E+02  (-0.2535848E+02)
 number of electron     216.0000000 magnetization 
 augmentation part      216.0000000 magnetization 

 Free energy of the ion-electron system (eV)
  ---------------------------------------------------
  alpha Z        PSCENC =        59.93625244
  Ewald energy   TEWEN  =     29491.81118182
  -Hartree energ DENC   =    -35667.26840410
  -exchange      EXHF   =         0.00000000
  -V(xc)+E(xc)   XCENC  =       605.05768432
  PAW double counting   =      6340.10990386    -6200.63067283
  entropy T*S    EENTRO =        -0.00000000
  eigenvalues    EBANDS =     -3605.42309966
  atomic energy  EATOM  =      8369.52358910
  ---------------------------------------------------
  free energy    TOTEN  =      -606.88356505 eV

  energy without entropy =     -606.88356505  energy(sigma->0) =     -606.88356505


--------------------------------------------------------------------------------------------------------




--------------------------------------- Iteration      1(   5)  ---------------------------------------


    TRIAL :  cpu time   24.0953: real time   24.3107
    CORREC:  cpu time    0.0001: real time    0.0001
    CHARGE:  cpu time    2.2848: real time    2.3021
    --------------------------------------------
      LOOP:  cpu time   26.4261: real time   26.7046

 eigenvalue-minimisations  :   392
 total energy-change (2. order) :-0.8792353E+00  (-0.8789915E+00)
 number of electron     216.0000000 magnetization 
 augmentation part       -0.4399089 magnetization 

 Free energy of the ion-electron system (eV)
  ---------------------------------------------------
  alpha Z        PSCENC =        59.93625244
  Ewald energy   TEWEN  =     29491.81118182
  -Hartree energ DENC   =    -35667.26840410
  -exchange      EXHF   =         0.00000000
  -V(xc)+E(xc)   XCENC  =       605.05768432
  PAW double counting   =      6340.10990386    -6200.63067283
  entropy T*S    EENTRO =        -0.00000000
  eigenvalues    EBANDS =     -3606.30233492
  atomic energy  EATOM  =      8369.52358910
  ---------------------------------------------------
  free energy    TOTEN  =      -607.76280031 eV

  energy without entropy =     -607.76280031  energy(sigma->0) =     -607.76280031


--------------------------------------------------------------------------------------------------------




--------------------------------------- Iteration      1(   6)  ---------------------------------------


    POTLOK:  cpu time    1.2475: real time    1.2556
    SETDIJ:  cpu time    0.2001: real time    0.2008
    TRIAL :  cpu time   15.5530: real time   15.6705
    CORREC:  cpu time    6.8781: real time    6.9244
    CHARGE:  cpu time    2.2812: real time    2.2999
    --------------------------------------------
      LOOP:  cpu time   26.2072: real time   26.4166

 eigenvalue-minimisations  :     0
 total energy-change (2. order) : 0.9816473E+02  (-0.1135865E+02)
 number of electron     216.0000000 magnetization 
 augmentation part       -0.5048891 magnetization 

 Free energy of the ion-electron system (eV)
  ---------------------------------------------------
  alpha Z        PSCENC =        59.93625244
  Ewald energy   TEWEN  =     29491.81118182
  -Hartree energ DENC   =    -36983.94889886
  -exchange      EXHF   =         0.00000000
  -V(xc)+E(xc)   XCENC  =       676.86333110
  PAW double counting   =    118691.95647798  -118552.40593275
  entropy T*S    EENTRO =        -0.00000000
  eigenvalues    EBANDS =     -2263.33406868
  atomic energy  EATOM  =      8369.52358910
  ---------------------------------------------------
  free energy    TOTEN  =      -509.59806786 eV

  energy without entropy =     -509.59806786  energy(sigma->0) =     -509.59806786


--------------------------------------------------------------------------------------------------------




--------------------------------------- Iteration      1(   7)  ---------------------------------------


    POTLOK:  cpu time    1.2515: real time    1.2586
    SETDIJ:  cpu time    0.1858: real time    0.1864
    TRIAL :  cpu time   15.5673: real time   15.6816
    CORREC:  cpu time    6.8805: real time    6.9272
    CHARGE:  cpu time    2.2853: real time    2.3032
    --------------------------------------------
      LOOP:  cpu time   26.2183: real time   26.4232

 eigenvalue-minimisations  :     0
 total energy-change (2. order) :-0.1137329E+02  (-0.1512898E+01)
 number of electron     216.0000000 magnetization 
 augmentation part       -0.5400180 magnetization 

 Free energy of the ion-electron system (eV)
  ---------------------------------------------------
  alpha Z        PSCENC =        59.93625244
  Ewald energy   TEWEN  =     29491.81118182
  -Hartree energ DENC   =    -36582.48238001
  -exchange      EXHF   =         0.00000000
  -V(xc)+E(xc)   XCENC  =       659.18693366
  PAW double counting   =    138273.96397399  -138132.65039156
  entropy T*S    EENTRO =        -0.00000000
  eigenvalues    EBANDS =     -2660.26051341
  atomic energy  EATOM  =      8369.52358910
  ---------------------------------------------------
  free energy    TOTEN  =      -520.97135398 eV

  energy without entropy =     -520.97135398  energy(sigma->0) =     -520.97135398


--------------------------------------------------------------------------------------------------------




--------------------------------------- Iteration      1(   8)  ---------------------------------------


    POTLOK:  cpu time    1.2473: real time    1.2546
    SETDIJ:  cpu time    0.1874: real time    0.1881
    TRIAL :  cpu time   15.5397: real time   15.6814
    CORREC:  cpu time    6.8640: real time    6.9155
    CHARGE:  cpu time    2.2812: real time    2.2974
    --------------------------------------------
      LOOP:  cpu time   26.1764: real time   26.3942

 eigenvalue-minimisations  :     0
 total energy-change (2. order) :-0.1512460E+01  (-0.4955617E+00)
 number of electron     216.0000000 magnetization 
 augmentation part       -0.5424088 magnetization 

 Free energy of the ion-electron system (eV)
  ---------------------------------------------------
  alpha Z        PSCENC =        59.93625244
  Ewald energy   TEWEN  =     29491.81118182
  -Hartree energ DENC   =    -36551.28094198
  -exchange      EXHF   =         0.00000000
  -V(xc)+E(xc)   XCENC  =       658.07453325
  PAW double counting   =    148092.49421230  -147951.04851489
  entropy T*S    EENTRO =        -0.00000000
  eigenvalues    EBANDS =     -2691.99412651
  atomic energy  EATOM  =      8369.52358910
  ---------------------------------------------------
  free energy    TOTEN  =      -522.48381447 eV

  energy without entropy =     -522.48381447  energy(sigma->0) =     -522.48381447


--------------------------------------------------------------------------------------------------------




--------------------------------------- Iteration      1(   9)  ---------------------------------------


    POTLOK:  cpu time    1.2459: real time    1.2532
    SETDIJ:  cpu time    0.1875: real time    0.1883
    TRIAL :  cpu time   15.5354: real time   15.6759
    CORREC:  cpu time    6.8708: real time    6.9214
    CHARGE:  cpu time    2.2852: real time    2.3017
    --------------------------------------------
      LOOP:  cpu time   26.1848: real time   26.4038

 eigenvalue-minimisations  :     0
 total energy-change (2. order) :-0.4951779E+00  (-0.1998201E+00)
 number of electron     216.0000000 magnetization 
 augmentation part       -0.5400309 magnetization 

 Free energy of the ion-electron system (eV)
  ---------------------------------------------------
  alpha Z        PSCENC =        59.93625244
  Ewald energy   TEWEN  =     29491.81118182
  -Hartree energ DENC   =    -36557.69531241
  -exchange      EXHF   =         0.00000000
  -V(xc)+E(xc)   XCENC  =       658.02206885
  PAW double counting   =    156344.22620424  -156202.70415963
  entropy T*S    EENTRO =        -0.00000000
  eigenvalues    EBANDS =     -2686.09881673
  atomic energy  EATOM  =      8369.52358910
  ---------------------------------------------------
  free energy    TOTEN  =      -522.97899234 eV

  energy without entropy =     -522.97899234  energy(sigma->0) =     -522.97899234


--------------------------------------------------------------------------------------------------------




--------------------------------------- Iteration      1(  10)  ---------------------------------------


    POTLOK:  cpu time    1.2449: real time    1.2522
    SETDIJ:  cpu time    0.1919: real time    0.1925
    TRIAL :  cpu time   15.5637: real time   15.6843
    CORREC:  cpu time    6.8722: real time    6.9202
    CHARGE:  cpu time    2.2824: real time    2.2988
    --------------------------------------------
      LOOP:  cpu time   26.1997: real time   26.4148

 eigenvalue-minimisations  :     0
 total energy-change (2. order) :-0.1994860E+00  (-0.8740690E-01)
 number of electron     216.0000000 magnetization 
 augmentation part       -0.5346937 magnetization 

 Free energy of the ion-electron system (eV)
  ---------------------------------------------------
  alpha Z        PSCENC =        59.93625244
  Ewald energy   TEWEN  =     29491.81118182
  -Hartree energ DENC   =    -36557.08892073
  -exchange      EXHF   =         0.00000000
  -V(xc)+E(xc)   XCENC  =       657.92967085
  PAW double counting   =    160366.87147736  -160225.29642295
  entropy T*S    EENTRO =        -0.00000000
  eigenvalues    EBANDS =     -2686.86530617
  atomic energy  EATOM  =      8369.52358910
  ---------------------------------------------------
  free energy    TOTEN  =      -523.17847829 eV

  energy without entropy =     -523.17847829  energy(sigma->0) =     -523.17847829


--------------------------------------------------------------------------------------------------------




--------------------------------------- Iteration      1(  11)  ---------------------------------------


    POTLOK:  cpu time    1.2477: real time    1.2551
    SETDIJ:  cpu time    0.1916: real time    0.1922
    TRIAL :  cpu time   15.5379: real time   15.6655
    CORREC:  cpu time    6.8744: real time    6.9221
    CHARGE:  cpu time    2.2793: real time    2.2956
    --------------------------------------------
      LOOP:  cpu time   26.1818: real time   26.3833

 eigenvalue-minimisations  :     0
 total energy-change (2. order) :-0.8718768E-01  (-0.3324348E-01)
 number of electron     216.0000000 magnetization 
 augmentation part       -0.5308625 magnetization 

 Free energy of the ion-electron system (eV)
  ---------------------------------------------------
  alpha Z        PSCENC =        59.93625244
  Ewald energy   TEWEN  =     29491.81118182
  -Hartree energ DENC   =    -36551.16906737
  -exchange      EXHF   =         0.00000000
  -V(xc)+E(xc)   XCENC  =       657.86220523
  PAW double counting   =    160927.93289470  -160786.37865518
  entropy T*S    EENTRO =        -0.00000000
  eigenvalues    EBANDS =     -2692.78406671
  atomic energy  EATOM  =      8369.52358910
  ---------------------------------------------------
  free energy    TOTEN  =      -523.26566597 eV

  energy without entropy =     -523.26566597  energy(sigma->0) =     -523.26566597


--------------------------------------------------------------------------------------------------------




--------------------------------------- Iteration      1(  12)  ---------------------------------------


    POTLOK:  cpu time    1.2470: real time    1.2543
    SETDIJ:  cpu time    0.1895: real time    0.1902
    TRIAL :  cpu time   15.5582: real time   15.6836
    CORREC:  cpu time    6.8737: real time    6.9242
    CHARGE:  cpu time    2.2890: real time    2.3056
    --------------------------------------------
      LOOP:  cpu time   26.1777: real time   26.4004

 eigenvalue-minimisations  :     0
 total energy-change (2. order) :-0.3318928E-01  (-0.1027587E-01)
 number of electron     216.0000000 magnetization 
 augmentation part       -0.5304843 magnetization 

 Free energy of the ion-electron system (eV)
  ---------------------------------------------------
  alpha Z        PSCENC =        59.93625244
  Ewald energy   TEWEN  =     29491.81118182
  -Hartree energ DENC   =    -36546.62701067
  -exchange      EXHF   =         0.00000000
  -V(xc)+E(xc)   XCENC  =       657.79038949
  PAW double counting   =    160235.76337556  -160094.23662946
  entropy T*S    EENTRO =        -0.00000000
  eigenvalues    EBANDS =     -2697.26000352
  atomic energy  EATOM  =      8369.52358910
  ---------------------------------------------------
  free energy    TOTEN  =      -523.29885525 eV

  energy without entropy =     -523.29885525  energy(sigma->0) =     -523.29885525


--------------------------------------------------------------------------------------------------------




--------------------------------------- Iteration      1(  13)  ---------------------------------------


    POTLOK:  cpu time    1.2503: real time    1.2579
    SETDIJ:  cpu time    0.1826: real time    0.1833
    TRIAL :  cpu time   15.5558: real time   15.6784
    CORREC:  cpu time    6.8675: real time    6.9207
    CHARGE:  cpu time    2.2810: real time    2.2971
    --------------------------------------------
      LOOP:  cpu time   26.1517: real time   26.3584

 eigenvalue-minimisations  :     0
 total energy-change (2. order) :-0.1025612E-01  (-0.2840810E-02)
 number of electron     216.0000000 magnetization 
 augmentation part       -0.5309506 magnetization 

 Free energy of the ion-electron system (eV)
  ---------------------------------------------------
  alpha Z        PSCENC =        59.93625244
  Ewald energy   TEWEN  =     29491.81118182
  -Hartree energ DENC   =    -36545.44307600
  -exchange      EXHF   =         0.00000000
  -V(xc)+E(xc)   XCENC  =       657.74441403
  PAW double counting   =    159485.02476406  -159343.50332719
  entropy T*S    EENTRO =        -0.00000000
  eigenvalues    EBANDS =     -2698.40290963
  atomic energy  EATOM  =      8369.52358910
  ---------------------------------------------------
  free energy    TOTEN  =      -523.30911137 eV

  energy without entropy =     -523.30911137  energy(sigma->0) =     -523.30911137


--------------------------------------------------------------------------------------------------------




--------------------------------------- Iteration      1(  14)  ---------------------------------------


    POTLOK:  cpu time    1.2474: real time    1.2548
    SETDIJ:  cpu time    0.1915: real time    0.1922
    TRIAL :  cpu time   15.5587: real time   15.6780
    CORREC:  cpu time    6.8937: real time    6.9417
    CHARGE:  cpu time    2.2832: real time    2.3010
    --------------------------------------------
      LOOP:  cpu time   26.2422: real time   26.4570

 eigenvalue-minimisations  :     0
 total energy-change (2. order) :-0.2829590E-02  (-0.7567337E-03)
 number of electron     216.0000000 magnetization 
 augmentation part       -0.5312142 magnetization 

 Free energy of the ion-electron system (eV)
  ---------------------------------------------------
  alpha Z        PSCENC =        59.93625244
  Ewald energy   TEWEN  =     29491.81118182
  -Hartree energ DENC   =    -36545.55984488
  -exchange      EXHF   =         0.00000000
  -V(xc)+E(xc)   XCENC  =       657.73119370
  PAW double counting   =    159057.11500034  -158915.59210134
  entropy T*S    EENTRO =        -0.00000000
  eigenvalues    EBANDS =     -2698.27721213
  atomic energy  EATOM  =      8369.52358910
  ---------------------------------------------------
  free energy    TOTEN  =      -523.31194095 eV

  energy without entropy =     -523.31194095  energy(sigma->0) =     -523.31194095


--------------------------------------------------------------------------------------------------------




--------------------------------------- Iteration      1(  15)  ---------------------------------------


    POTLOK:  cpu time    1.2502: real time    1.2571
    SETDIJ:  cpu time    0.1884: real time    0.1890
    TRIAL :  cpu time   15.5599: real time   15.6803
    CORREC:  cpu time    6.8729: real time    6.9199
    CHARGE:  cpu time    2.2874: real time    2.3031
    --------------------------------------------
      LOOP:  cpu time   26.1877: real time   26.3804

 eigenvalue-minimisations  :     0
 total energy-change (2. order) :-0.7523201E-03  (-0.2225560E-03)
 number of electron     216.0000000 magnetization 
 augmentation part       -0.5314122 magnetization 

 Free energy of the ion-electron system (eV)
  ---------------------------------------------------
  alpha Z        PSCENC =        59.93625244
  Ewald energy   TEWEN  =     29491.81118182
  -Hartree energ DENC   =    -36545.48726281
  -exchange      EXHF   =         0.00000000
  -V(xc)+E(xc)   XCENC  =       657.72482824
  PAW double counting   =    158858.86101969  -158717.33685649
  entropy T*S    EENTRO =        -0.00000000
  eigenvalues    EBANDS =     -2698.34544526
  atomic energy  EATOM  =      8369.52358910
  ---------------------------------------------------
  free energy    TOTEN  =      -523.31269328 eV

  energy without entropy =     -523.31269328  energy(sigma->0) =     -523.31269328


--------------------------------------------------------------------------------------------------------




--------------------------------------- Iteration      1(  16)  ---------------------------------------


    POTLOK:  cpu time    1.2564: real time    1.2637
    SETDIJ:  cpu time    0.1797: real time    0.1804
    TRIAL :  cpu time   15.5630: real time   15.6830
    CORREC:  cpu time    6.8686: real time    6.9167
    CHARGE:  cpu time    2.2810: real time    2.2979
    --------------------------------------------
      LOOP:  cpu time   26.2206: real time   26.4145

 eigenvalue-minimisations  :     0
 total energy-change (2. order) :-0.2204556E-03  (-0.7241847E-04)
 number of electron     216.0000000 magnetization 
 augmentation part       -0.5315093 magnetization 

 Free energy of the ion-electron system (eV)
  ---------------------------------------------------
  alpha Z        PSCENC =        59.93625244
  Ewald energy   TEWEN  =     29491.81118182
  -Hartree energ DENC   =    -36545.41685006
  -exchange      EXHF   =         0.00000000
  -V(xc)+E(xc)   XCENC  =       657.72002156
  PAW double counting   =    158747.49300603  -158605.96727786
  entropy T*S    EENTRO =        -0.00000000
  eigenvalues    EBANDS =     -2698.41283677
  atomic energy  EATOM  =      8369.52358910
  ---------------------------------------------------
  free energy    TOTEN  =      -523.31291373 eV

  energy without entropy =     -523.31291373  energy(sigma->0) =     -523.31291373


--------------------------------------------------------------------------------------------------------




--------------------------------------- Iteration      1(  17)  ---------------------------------------


    POTLOK:  cpu time    1.2479: real time    1.2557
    SETDIJ:  cpu time    0.1882: real time    0.1888
    TRIAL :  cpu time   15.5624: real time   15.6864
    CORREC:  cpu time    6.8781: real time    6.9275
    CHARGE:  cpu time    2.2852: real time    2.3018
    --------------------------------------------
      LOOP:  cpu time   26.2260: real time   26.4299

 eigenvalue-minimisations  :     0
 total energy-change (2. order) :-0.7119929E-04  (-0.2533987E-04)
 number of electron     216.0000000 magnetization 
 augmentation part       -0.5315431 magnetization 

 Free energy of the ion-electron system (eV)
  ---------------------------------------------------
  alpha Z        PSCENC =        59.93625244
  Ewald energy   TEWEN  =     29491.81118182
  -Hartree energ DENC   =    -36545.56313589
  -exchange      EXHF   =         0.00000000
  -V(xc)+E(xc)   XCENC  =       657.72590381
  PAW double counting   =    158679.83991626  -158538.31395577
  entropy T*S    EENTRO =        -0.00000000
  eigenvalues    EBANDS =     -2698.27273670
  atomic energy  EATOM  =      8369.52358910
  ---------------------------------------------------
  free energy    TOTEN  =      -523.31298493 eV

  energy without entropy =     -523.31298493  energy(sigma->0) =     -523.31298493


--------------------------------------------------------------------------------------------------------




--------------------------------------- Iteration      1(  18)  ---------------------------------------


    POTLOK:  cpu time    1.2480: real time    1.2553
    SETDIJ:  cpu time    0.1862: real time    0.1869
    TRIAL :  cpu time   15.5488: real time   15.6717
    CORREC:  cpu time    6.8632: real time    6.9147
    CHARGE:  cpu time    2.2816: real time    2.2979
    --------------------------------------------
      LOOP:  cpu time   26.1967: real time   26.3999

 eigenvalue-minimisations  :     0
 total energy-change (2. order) :-0.2545840E-04  (-0.8573274E-05)
 number of electron     216.0000000 magnetization 
 augmentation part       -0.5315653 magnetization 

 Free energy of the ion-electron system (eV)
  ---------------------------------------------------
  alpha Z        PSCENC =        59.93625244
  Ewald energy   TEWEN  =     29491.81118182
  -Hartree energ DENC   =    -36545.62327653
  -exchange      EXHF   =         0.00000000
  -V(xc)+E(xc)   XCENC  =       657.72828133
  PAW double counting   =    158655.66525205  -158514.13908310
  entropy T*S    EENTRO =        -0.00000000
  eigenvalues    EBANDS =     -2698.21520749
  atomic energy  EATOM  =      8369.52358910
  ---------------------------------------------------
  free energy    TOTEN  =      -523.31301039 eV

  energy without entropy =     -523.31301039  energy(sigma->0) =     -523.31301039


--------------------------------------------------------------------------------------------------------




--------------------------------------- Iteration      1(  19)  ---------------------------------------


    POTLOK:  cpu time    1.2481: real time    1.2554
    SETDIJ:  cpu time    0.1885: real time    0.1892
    TRIAL :  cpu time   15.5601: real time   15.6794
    CORREC:  cpu time    6.8861: real time    6.9331
    CHARGE:  cpu time    2.2818: real time    2.2982
    --------------------------------------------
      LOOP:  cpu time   26.2036: real time   26.3982

 eigenvalue-minimisations  :     0
 total energy-change (2. order) :-0.8862233E-05  (-0.2999581E-05)
 number of electron     216.0000000 magnetization 
 augmentation part       -0.5315711 magnetization 

 Free energy of the ion-electron system (eV)
  ---------------------------------------------------
  alpha Z        PSCENC =        59.93625244
  Ewald energy   TEWEN  =     29491.81118182
  -Hartree energ DENC   =    -36545.62345121
  -exchange      EXHF   =         0.00000000
  -V(xc)+E(xc)   XCENC  =       657.72799773
  PAW double counting   =    158658.31693057  -158516.79051219
  entropy T*S    EENTRO =        -0.00000000
  eigenvalues    EBANDS =     -2698.21500751
  atomic energy  EATOM  =      8369.52358910
  ---------------------------------------------------
  free energy    TOTEN  =      -523.31301925 eV

  energy without entropy =     -523.31301925  energy(sigma->0) =     -523.31301925


--------------------------------------------------------------------------------------------------------




--------------------------------------- Iteration      1(  20)  ---------------------------------------


    POTLOK:  cpu time    1.2470: real time    1.2539
    SETDIJ:  cpu time    0.1922: real time    0.1928
    TRIAL :  cpu time   15.5623: real time   15.6779
    CORREC:  cpu time    6.8766: real time    6.9227
    CHARGE:  cpu time    2.2802: real time    2.2963
    --------------------------------------------
      LOOP:  cpu time   26.1943: real time   26.3878

 eigenvalue-minimisations  :     0
 total energy-change (2. order) :-0.3112596E-05  (-0.1042106E-05)
 number of electron     216.0000000 magnetization 
 augmentation part       -0.5315700 magnetization 

 Free energy of the ion-electron system (eV)
  ---------------------------------------------------
  alpha Z        PSCENC =        59.93625244
  Ewald energy   TEWEN  =     29491.81118182
  -Hartree energ DENC   =    -36545.64138007
  -exchange      EXHF   =         0.00000000
  -V(xc)+E(xc)   XCENC  =       657.72872653
  PAW double counting   =    158667.81711442  -158526.29071438
  entropy T*S    EENTRO =        -0.00000000
  eigenvalues    EBANDS =     -2698.19779223
  atomic energy  EATOM  =      8369.52358910
  ---------------------------------------------------
  free energy    TOTEN  =      -523.31302236 eV

  energy without entropy =     -523.31302236  energy(sigma->0) =     -523.31302236


--------------------------------------------------------------------------------------------------------




--------------------------------------- Iteration      1(  21)  ---------------------------------------


    POTLOK:  cpu time    1.2488: real time    1.2557
    SETDIJ:  cpu time    0.1836: real time    0.1842
    TRIAL :  cpu time   15.5724: real time   15.6852
    CORREC:  cpu time    6.8619: real time    6.9263
    CHARGE:  cpu time    2.2866: real time    2.3028
    --------------------------------------------
      LOOP:  cpu time   26.2325: real time   26.4405

 eigenvalue-minimisations  :     0
 total energy-change (2. order) :-0.1071370E-05  (-0.3907338E-06)
 number of electron     216.0000000 magnetization 
 augmentation part       -0.5315647 magnetization 

 Free energy of the ion-electron system (eV)
  ---------------------------------------------------
  alpha Z        PSCENC =        59.93625244
  Ewald energy   TEWEN  =     29491.81118182
  -Hartree energ DENC   =    -36545.64984291
  -exchange      EXHF   =         0.00000000
  -V(xc)+E(xc)   XCENC  =       657.72895922
  PAW double counting   =    158675.80242421  -158534.27605238
  entropy T*S    EENTRO =        -0.00000000
  eigenvalues    EBANDS =     -2698.18953494
  atomic energy  EATOM  =      8369.52358910
  ---------------------------------------------------
  free energy    TOTEN  =      -523.31302343 eV

  energy without entropy =     -523.31302343  energy(sigma->0) =     -523.31302343


--------------------------------------------------------------------------------------------------------




--------------------------------------- Iteration      1(  22)  ---------------------------------------


    POTLOK:  cpu time    1.2502: real time    1.2576
    SETDIJ:  cpu time    0.1883: real time    0.1889
    TRIAL :  cpu time   15.5622: real time   15.6832
    CORREC:  cpu time    6.8755: real time    6.9286
    CHARGE:  cpu time    2.3245: real time    2.3435
    --------------------------------------------
      LOOP:  cpu time   26.2220: real time   26.4335

 eigenvalue-minimisations  :     0
 total energy-change (2. order) :-0.3931927E-06  (-0.1998028E-06)
 number of electron     216.0000000 magnetization 
 augmentation part       -0.5315580 magnetization 

 Free energy of the ion-electron system (eV)
  ---------------------------------------------------
  alpha Z        PSCENC =        59.93625244
  Ewald energy   TEWEN  =     29491.81118182
  -Hartree energ DENC   =    -36545.64898531
  -exchange      EXHF   =         0.00000000
  -V(xc)+E(xc)   XCENC  =       657.72886712
  PAW double counting   =    158680.65140721  -158539.12506855
  entropy T*S    EENTRO =        -0.00000000
  eigenvalues    EBANDS =     -2698.19026766
  atomic energy  EATOM  =      8369.52358910
  ---------------------------------------------------
  free energy    TOTEN  =      -523.31302383 eV

  energy without entropy =     -523.31302383  energy(sigma->0) =     -523.31302383


--------------------------------------------------------------------------------------------------------




--------------------------------------- Iteration      1(  23)  ---------------------------------------


    POTLOK:  cpu time    1.3070: real time    1.3146
    SETDIJ:  cpu time    0.2010: real time    0.2018
    TRIAL :  cpu time   15.5680: real time   15.6842
    CORREC:  cpu time    6.8807: real time    6.9296
    CHARGE:  cpu time    2.2812: real time    2.2978
    --------------------------------------------
      LOOP:  cpu time   26.2671: real time   26.4628

 eigenvalue-minimisations  :     0
 total energy-change (2. order) :-0.1827721E-06  (-0.1612182E-06)
 number of electron     216.0000000 magnetization 
 augmentation part       -0.5315543 magnetization 

 Free energy of the ion-electron system (eV)
  ---------------------------------------------------
  alpha Z        PSCENC =        59.93625244
  Ewald energy   TEWEN  =     29491.81118182
  -Hartree energ DENC   =    -36545.64762998
  -exchange      EXHF   =         0.00000000
  -V(xc)+E(xc)   XCENC  =       657.72884815
  PAW double counting   =    158683.47714059  -158541.95085376
  entropy T*S    EENTRO =        -0.00000000
  eigenvalues    EBANDS =     -2698.19155238
  atomic energy  EATOM  =      8369.52358910
  ---------------------------------------------------
  free energy    TOTEN  =      -523.31302401 eV

  energy without entropy =     -523.31302401  energy(sigma->0) =     -523.31302401


--------------------------------------------------------------------------------------------------------




--------------------------------------- Iteration      1(  24)  ---------------------------------------


    POTLOK:  cpu time    1.2483: real time    1.2554
    SETDIJ:  cpu time    0.1893: real time    0.1899
    TRIAL :  cpu time   15.5403: real time   15.6711
    CORREC:  cpu time    6.8744: real time    6.9202
    CHARGE:  cpu time    2.2846: real time    2.3007
    --------------------------------------------
      LOOP:  cpu time   26.1857: real time   26.3875

 eigenvalue-minimisations  :     0
 total energy-change (2. order) :-0.3495370E-07  (-0.1160615E-06)
 number of electron     216.0000000 magnetization 
 augmentation part       -0.5315568 magnetization 

 Free energy of the ion-electron system (eV)
  ---------------------------------------------------
  alpha Z        PSCENC =        59.93625244
  Ewald energy   TEWEN  =     29491.81118182
  -Hartree energ DENC   =    -36545.64404964
  -exchange      EXHF   =         0.00000000
  -V(xc)+E(xc)   XCENC  =       657.72872001
  PAW double counting   =    158685.68402631  -158544.15776983
  entropy T*S    EENTRO =        -0.00000000
  eigenvalues    EBANDS =     -2698.19497426
  atomic energy  EATOM  =      8369.52358910
  ---------------------------------------------------
  free energy    TOTEN  =      -523.31302405 eV

  energy without entropy =     -523.31302405  energy(sigma->0) =     -523.31302405


--------------------------------------------------------------------------------------------------------




--------------------------------------- Iteration      1(  25)  ---------------------------------------


    POTLOK:  cpu time    1.2462: real time    1.2547
    SETDIJ:  cpu time    0.1872: real time    0.1878
    TRIAL :  cpu time   15.5457: real time   15.6691
    CORREC:  cpu time    6.8755: real time    6.9238
    EDDIAG:  cpu time    3.2020: real time    3.2270
    CHARGE:  cpu time    2.2782: real time    2.2948
    --------------------------------------------
      LOOP:  cpu time   29.3785: real time   29.6184

 eigenvalue-minimisations  :     0
 total energy-change (2. order) :-0.6149639E-07  (-0.6861429E-07)
 number of electron     216.0000000 magnetization 
 augmentation part       -0.5315602 magnetization 

 Free energy of the ion-electron system (eV)
  ---------------------------------------------------
  alpha Z        PSCENC =        59.93625244
  Ewald energy   TEWEN  =     29491.81118182
  -Hartree energ DENC   =    -36545.64485469
  -exchange      EXHF   =         0.00000000
  -V(xc)+E(xc)   XCENC  =       657.72879961
  PAW double counting   =    158685.13028303  -158543.60402338
  entropy T*S    EENTRO =        -0.00000000
  eigenvalues    EBANDS =     -2698.19425204
  atomic energy  EATOM  =      8369.52358910
  ---------------------------------------------------
  free energy    TOTEN  =      -523.31302411 eV

  energy without entropy =     -523.31302411  energy(sigma->0) =     -523.31302411


--------------------------------------------------------------------------------------------------------


  average scaling for gradient   0.9408


 average (electrostatic) potential at core
  the test charge radii are     0.5770  0.5955
  (the norm of the test charge is              1.0000)
       1 -87.6319       2 -87.6314       3 -87.6318       4 -87.6323       5 -87.6308
       6 -87.6308       7 -87.6318       8 -87.6308       9 -87.6311      10 -87.6313
      11 -87.6307      12 -87.6307      13 -87.6313      14 -87.6310      15 -87.6306
      16 -87.6308      17 -87.6312      18 -87.6315      19 -87.6317      20 -87.6313
      21 -87.6306      22 -87.6305      23 -87.6325      24 -87.6325      25 -87.6306
      26 -87.6307      27 -87.6311      28 -87.6319      29 -87.6306      30 -87.6306
      31 -87.6319      32 -87.6315      33 -87.6309      34 -87.6308      35 -87.6308
      36 -87.6309      37 -87.6314      38 -87.6316      39 -87.6315      40 -87.6315
      41 -87.6315      42 -87.6316      43 -87.6313      44 -87.6318      45 -87.6307
      46 -87.6308      47 -87.6307      48 -87.6307      49 -87.6316      50 -87.6314
      51 -91.5281      52-123.9114      53-123.9106
 
 
 
 E-fermi :  -4.1065     XC(G=0):  -2.3565     alpha+bet : -2.1113

 Fermi energy:        -4.1065453991

 k-point     1 :       0.0000    0.0000    0.0000
  band No.  band energies     occupation 
      1     -28.8080      2.00000
      2     -27.6994      2.00000
      3     -23.3379      2.00000
      4     -22.3457      2.00000
      5     -22.3442      2.00000
      6     -22.3441      2.00000
      7     -22.3438      2.00000
      8     -22.3437      2.00000
      9     -22.3431      2.00000
     10     -20.3985      2.00000
     11     -20.3984      2.00000
     12     -20.3982      2.00000
     13     -20.3975      2.00000
     14     -20.3969      2.00000
     15     -20.3967      2.00000
     16     -19.4557      2.00000
     17     -19.4555      2.00000
     18     -19.4551      2.00000
     19     -19.4549      2.00000
     20     -19.4541      2.00000
     21     -19.4538      2.00000
     22     -17.2151      2.00000
     23     -17.2147      2.00000
     24     -17.2140      2.00000
     25     -17.2138      2.00000
     26     -17.2133      2.00000
     27     -17.2132      2.00000
     28     -16.0468      2.00000
     29     -16.0468      2.00000
     30     -16.0457      2.00000
     31     -16.0455      2.00000
     32     -16.0451      2.00000
     33     -16.0450      2.00000
     34     -14.6399      2.00000
     35     -14.6398      2.00000
     36     -14.6391      2.00000
     37     -14.6389      2.00000
     38     -14.6389      2.00000
     39     -14.6386      2.00000
     40     -12.8685      2.00000
     41     -12.1480      2.00000
     42     -12.1477      2.00000
     43     -12.1473      2.00000
     44     -12.1472      2.00000
     45     -12.1460      2.00000
     46     -12.1458      2.00000
     47     -11.9404      2.00000
     48     -11.9403      2.00000
     49     -11.9396      2.00000
     50     -11.9395      2.00000
     51     -11.9395      2.00000
     52     -11.9393      2.00000
     53     -11.5232      2.00000
     54     -11.3282      2.00000
     55     -11.3281      2.00000
     56     -10.6314      2.00000
     57     -10.4780      2.00000
     58     -10.4778      2.00000
     59     -10.4761      2.00000
     60     -10.4758      2.00000
     61     -10.4756      2.00000
     62     -10.4755      2.00000
     63      -9.4548      2.00000
     64      -9.4537      2.00000
     65      -9.4535      2.00000
     66      -9.4532      2.00000
     67      -9.4531      2.00000
     68      -9.4529      2.00000
     69      -9.1463      2.00000
     70      -9.1452      2.00000
     71      -9.1448      2.00000
     72      -9.1447      2.00000
     73      -9.1443      2.00000
     74      -9.1442      2.00000
     75      -9.1398      2.00000
     76      -9.1395      2.00000
     77      -9.1387      2.00000
     78      -9.1384      2.00000
     79      -9.1383      2.00000
     80      -9.1376      2.00000
     81      -7.6906      2.00000
     82      -7.6905      2.00000
     83      -7.4013      2.00000
     84      -7.3995      2.00000
     85      -7.3994      2.00000
     86      -7.3990      2.00000
     87      -7.3980      2.00000
     88      -7.3980      2.00000
     89      -7.2067      2.00000
     90      -7.2064      2.00000
     91      -7.2062      2.00000
     92      -7.2058      2.00000
     93      -7.2054      2.00000
     94      -7.2051      2.00000
     95      -6.2612      2.00000
     96      -6.2611      2.00000
     97      -6.2608      2.00000
     98      -6.2607      2.00000
     99      -6.2600      2.00000
    100      -6.2598      2.00000
    101      -5.8292      2.00000
    102      -5.8269      2.00000
    103      -4.1617      2.00000
    104      -4.1613      2.00000
    105      -4.1608      2.00000
    106      -4.1607      2.00000
    107      -4.1601      2.00000
    108      -4.1600      2.00000
    109      -1.1678      0.00000
    110      -1.1676      0.00000
    111      -1.1673      0.00000
    112      -1.1672      0.00000
    113      -1.1664      0.00000
    114      -1.1661      0.00000
    115       0.8240      0.00000
    116       0.8243      0.00000
    117       0.8247      0.00000
    118       0.8248      0.00000
    119       0.8251      0.00000
    120       0.8264      0.00000
    121       1.0556      0.00000
    122       1.3495      0.00000
    123       1.5310      0.00000
    124       1.5330      0.00000
    125       1.8168      0.00000
    126       2.3069      0.00000
    127       2.3768      0.00000
    128       2.3867      0.00000
    129       2.3909      0.00000
    130       2.3945      0.00000
    131       2.3956      0.00000
    132       2.4882      0.00000
    133       2.6913      0.00000
    134       2.6915      0.00000
    135       2.6919      0.00000
    136       2.6923      0.00000
    137       2.6927      0.00000
    138       2.6932      0.00000
    139       2.9477      0.00000
    140       3.0141      0.00000
    141       3.0776      0.00000
    142       3.1089      0.00000
    143       3.1150      0.00000
    144       3.1256      0.00000
    145       3.1324      0.00000
    146       3.1374      0.00000
    147       3.2168      0.00000
    148       3.2388      0.00000
    149       3.2629      0.00000
    150       3.2938      0.00000
    151       3.3352      0.00000
    152       4.3464      0.00000
    153       4.5707      0.00000
    154       4.8431      0.00000
    155       4.8968      0.00000
    156       4.9883      0.00000
    157       5.1779      0.00000
    158       5.1998      0.00000
    159       5.2120      0.00000
    160       5.2165      0.00000
    161       5.2199      0.00000
    162       5.2212      0.00000
    163       5.2222      0.00000
    164       5.2285      0.00000
    165       5.3074      0.00000
    166       5.3518      0.00000
    167       5.3601      0.00000
    168       5.3827      0.00000


--------------------------------------------------------------------------------------------------------


 soft charge-density along one line, spin component           1
         0         1         2         3         4         5         6         7         8         9
 total charge-density along one line
 
 pseudopotential strength for first ion, spin component:           1
 12.626  21.244   0.000   0.000   0.000   0.000   0.000   0.000
 21.244  35.745   0.000   0.000   0.000   0.000   0.000   0.000
  0.000   0.000  -3.230  -0.000   0.000  -5.784   0.000   0.000
  0.000   0.000  -0.000  -3.230  -0.000   0.000  -5.784  -0.000
  0.000   0.000   0.000  -0.000  -3.230   0.000  -0.000  -5.784
  0.000   0.000  -5.784   0.000   0.000 -10.336   0.000   0.000
  0.000   0.000   0.000  -5.784  -0.000   0.000 -10.335  -0.000
  0.000   0.000   0.000  -0.000  -5.784   0.000  -0.000 -10.336
 total augmentation occupancy for first ion, spin component:           1
 10.264  -3.894  -0.000  -0.002  -0.000   0.000   0.001   0.000
 -3.894   1.507   0.000   0.001   0.000  -0.000  -0.000  -0.000
 -0.000   0.000   8.469  -0.009   0.000  -3.024   0.003  -0.000
 -0.002   0.001  -0.009   4.016  -0.000   0.003  -1.207   0.000
 -0.000   0.000   0.000  -0.000   8.468  -0.000   0.000  -3.024
  0.000  -0.000  -3.024   0.003  -0.000   1.093  -0.001   0.000
  0.001  -0.000   0.003  -1.207   0.000  -0.001   0.368  -0.000
  0.000  -0.000  -0.000   0.000  -3.024   0.000  -0.000   1.093


------------------------ aborting loop because EDIFF is reached ----------------------------------------


    FORLOC:  cpu time    0.1054: real time    0.1062
    FORNL :  cpu time    2.8817: real time    2.9056
    FORCOR:  cpu time    1.2666: real time    1.2743
    OFIELD:  cpu time    0.0023: real time    0.0023

 VOLUME and BASIS-vectors are now :
 -----------------------------------------------------------------------------
  energy-cutoff  :     1000.00
  volume of cell :     2631.08
      direct lattice vectors                 reciprocal lattice vectors
    12.325000000  0.000000000  0.000000000     0.081135903  0.046843835  0.000000000
    -6.162500000 10.673763102  0.000000000     0.000000000  0.093687670  0.000000000
     0.000000000  0.000000000 20.000000000     0.000000000  0.000000000  0.050000000

  length of vectors
    12.325000000 12.325000000 20.000000000     0.093687670  0.093687670  0.050000000


 FORCES acting on ions:
    Electron-Ion                     Ewald-Force                    Non-Local-Force
 -----------------------------------------------------------------------------------------------
   0.724E+00 0.640E+00 0.628E+01   -.726E+00 -.641E+00 -.628E+01   0.457E-02 -.727E-03 0.610E-02
   0.989E+00 0.543E+00 0.720E+01   -.993E+00 -.540E+00 -.720E+01   0.289E-02 -.325E-02 -.601E-02
   0.396E+00 0.108E+01 0.711E+01   -.398E+00 -.108E+01 -.712E+01   -.339E-03 0.114E-01 -.200E-02
   0.495E+00 0.718E+00 0.917E+01   -.493E+00 -.717E+00 -.917E+01   0.116E-01 0.490E-03 -.174E-01
   0.806E+00 0.212E+00 0.672E+01   -.805E+00 -.213E+00 -.672E+01   -.554E-03 -.530E-02 0.410E-02
   0.822E+00 -.187E+00 0.689E+01   -.825E+00 0.189E+00 -.689E+01   -.640E-02 0.331E-02 -.195E-02
   0.943E+00 0.414E+00 0.927E+01   -.945E+00 -.415E+00 -.926E+01   0.117E-01 -.192E-01 -.737E-02
   0.967E+00 -.305E+00 0.104E+02   -.972E+00 0.308E+00 -.104E+02   -.728E-02 -.539E-02 -.617E-02
   -.468E+00 0.106E+01 0.755E+01   0.472E+00 -.106E+01 -.755E+01   -.388E-04 -.133E-01 -.518E-02
   -.594E+00 0.524E+00 0.950E+01   0.595E+00 -.525E+00 -.949E+01   -.257E-01 0.147E-01 0.211E-02
   0.211E+00 -.223E+00 0.611E+01   -.208E+00 0.222E+00 -.611E+01   0.397E-02 -.266E-02 0.112E-02
   0.212E+00 -.176E+00 0.595E+01   -.212E+00 0.176E+00 -.596E+01   -.667E-02 0.329E-02 0.721E-02
   0.273E+00 -.752E+00 0.112E+02   -.274E+00 0.754E+00 -.111E+02   0.264E-01 -.755E-02 -.286E-02
   0.177E+00 -.116E+01 0.870E+01   -.181E+00 0.116E+01 -.868E+01   0.354E-02 0.694E-02 -.168E-01
   -.764E+00 0.457E+00 0.635E+01   0.766E+00 -.458E+00 -.635E+01   0.742E-02 -.413E-02 0.865E-02
   -.959E+00 0.261E+00 0.648E+01   0.958E+00 -.261E+00 -.648E+01   -.132E-02 0.505E-02 -.405E-02
   -.137E+00 -.569E-01 0.555E+01   0.140E+00 0.551E-01 -.555E+01   0.255E-04 0.480E-03 0.252E-02
   0.642E-01 0.473E+00 0.561E+01   -.637E-01 -.474E+00 -.562E+01   -.293E-02 0.157E-02 0.975E-02
   -.199E+00 -.111E+01 0.739E+01   0.199E+00 0.111E+01 -.739E+01   0.583E-02 -.142E-02 0.128E-03
   -.121E+00 -.690E+00 0.626E+01   0.118E+00 0.691E+00 -.626E+01   -.322E-04 -.745E-03 -.437E-03
   0.104E+01 -.442E+00 0.810E+01   -.104E+01 0.442E+00 -.808E+01   -.200E-02 -.205E-02 -.163E-01
   0.755E+00 -.600E+00 0.732E+01   -.758E+00 0.601E+00 -.732E+01   -.687E-02 0.532E-02 -.125E-02
   -.168E+00 0.293E+00 0.110E+02   0.164E+00 -.291E+00 -.109E+02   -.104E-01 0.103E-01 -.775E-03
   -.250E+00 -.470E+00 0.109E+02   0.252E+00 0.468E+00 -.109E+02   0.121E-01 -.148E-01 -.129E-01
   0.409E+00 -.146E+00 0.619E+01   -.407E+00 0.144E+00 -.619E+01   0.372E-02 -.261E-02 -.197E-02
   0.124E+00 0.351E+00 0.603E+01   -.125E+00 -.350E+00 -.603E+01   -.504E-02 0.330E-02 0.676E-02
   -.113E+01 0.101E+00 0.793E+01   0.114E+01 -.103E+00 -.793E+01   0.121E-01 0.768E-02 -.282E-02
   -.104E+01 -.439E+00 0.737E+01   0.104E+01 0.439E+00 -.738E+01   -.833E-02 0.905E-02 0.264E-03
   0.405E+00 -.852E+00 0.743E+01   -.405E+00 0.852E+00 -.743E+01   0.405E-02 0.239E-02 -.604E-02
   0.377E-01 -.375E+00 0.643E+01   -.399E-01 0.376E+00 -.643E+01   -.483E-02 0.245E-02 -.120E-02
   -.741E+00 -.739E+00 0.827E+01   0.739E+00 0.740E+00 -.827E+01   -.118E-01 -.779E-02 -.150E-01
   -.552E+00 -.106E+01 0.712E+01   0.553E+00 0.106E+01 -.713E+01   0.748E-03 -.779E-03 0.122E-02
   0.393E-01 0.241E+00 0.583E+01   -.392E-01 -.241E+00 -.584E+01   0.496E-02 -.465E-02 0.816E-02
   0.131E+00 0.207E+00 0.597E+01   -.134E+00 -.206E+00 -.597E+01   -.232E-02 0.459E-02 -.481E-04
   -.510E+00 0.972E-01 0.609E+01   0.513E+00 -.982E-01 -.610E+01   0.428E-02 -.250E-02 0.717E-02
   -.449E+00 -.214E+00 0.603E+01   0.449E+00 0.214E+00 -.604E+01   -.364E-02 0.219E-02 0.487E-02
   -.837E+00 -.464E+00 0.620E+01   0.840E+00 0.462E+00 -.620E+01   -.568E-03 0.107E-02 0.359E-02
   -.563E+00 -.454E+00 0.586E+01   0.564E+00 0.455E+00 -.587E+01   -.368E-02 0.132E-02 0.938E-02
   -.514E+00 -.648E+00 0.603E+01   0.514E+00 0.649E+00 -.603E+01   -.280E-02 0.581E-03 0.462E-02
   -.743E-01 -.186E+00 0.573E+01   0.753E-01 0.186E+00 -.573E+01   0.194E-02 0.792E-03 0.737E-02
   0.198E+00 0.489E+00 0.567E+01   -.199E+00 -.489E+00 -.567E+01   -.394E-02 0.165E-02 0.700E-02
   0.592E+00 0.881E+00 0.619E+01   -.590E+00 -.882E+00 -.620E+01   -.865E-03 -.107E-02 0.725E-02
   0.725E-01 0.801E+00 0.584E+01   -.693E-01 -.803E+00 -.585E+01   -.461E-04 0.495E-03 0.279E-02
   0.651E-02 0.114E+01 0.676E+01   -.578E-02 -.114E+01 -.677E+01   -.799E-02 0.155E-02 0.498E-02
   -.158E+00 0.289E+00 0.617E+01   0.160E+00 -.291E+00 -.618E+01   0.407E-02 -.315E-02 0.283E-02
   -.548E+00 0.704E+00 0.650E+01   0.547E+00 -.704E+00 -.650E+01   -.581E-02 0.516E-04 -.333E-03
   -.172E+00 -.357E+00 0.621E+01   0.172E+00 0.357E+00 -.621E+01   0.598E-02 -.125E-02 0.712E-02
   -.328E+00 0.112E+00 0.582E+01   0.326E+00 -.112E+00 -.582E+01   -.359E-02 0.335E-02 -.196E-02
   0.282E-01 -.216E+00 0.581E+01   -.285E-01 0.217E+00 -.582E+01   0.414E-02 -.301E-02 0.608E-02
   0.347E+00 0.250E+00 0.578E+01   -.350E+00 -.248E+00 -.578E+01   -.336E-03 0.178E-02 0.364E-02
   -.367E-02 0.290E-01 -.871E+02   -.798E-03 -.248E-01 0.871E+02   -.284E-02 0.176E-02 -.101E-02
   -.228E+03 0.155E+03 -.142E+03   0.279E+03 -.190E+03 0.146E+03   -.523E+02 0.356E+02 -.351E+01
   0.228E+03 -.155E+03 -.123E+03   -.279E+03 0.190E+03 0.119E+03   0.523E+02 -.356E+02 0.316E+01
 -----------------------------------------------------------------------------------------------
   -.802E-02 0.147E-01 0.357E+00   0.568E-13 0.284E-13 -.284E-13   0.788E-02 -.148E-01 -.348E+00
 
 
 POSITION                                       TOTAL-FORCE (eV/Angst)
 -----------------------------------------------------------------------------------
     11.98348      0.00342      0.01417         0.003485     -0.001927     -0.001459
     -0.34154      1.42665      0.01100        -0.000843     -0.000104     -0.003712
      2.12355      0.00315      0.01249        -0.002244      0.010954     -0.007286
      2.12326      1.42653      0.00641         0.014085      0.001020     -0.008629
     10.75099      2.13819      0.01213         0.000948     -0.005882     -0.000185
     -1.57382      3.56123      0.01110        -0.009426      0.004494     -0.001516
      0.89078      2.13854      0.00548         0.009880     -0.019724      0.002868
      0.89099      3.56147      0.00181        -0.011976     -0.002719      0.013464
      4.58864      0.00346      0.01135         0.003550     -0.016230     -0.003920
      4.58894      1.42623      0.00646        -0.023992      0.013615      0.015336
      9.51854      4.27281      0.01369         0.007035     -0.002866      0.000081
     -2.80632      5.69591      0.01434        -0.007076      0.003399      0.000672
      2.12300      4.27302      0.00000         0.025509     -0.005162      0.022905
      2.12335      5.69594      0.00581        -0.000590      0.009167     -0.002442
      7.05344      0.00333      0.01399         0.009491     -0.005725     -0.000651
      7.05353      1.42635      0.01368        -0.001761      0.005153     -0.004170
      8.28610      6.40752      0.01601         0.003123     -0.001212     -0.001120
     -4.03885      7.83070      0.01636        -0.002567      0.001017     -0.000420
      3.35586      6.40753      0.01007         0.005625      0.000694     -0.001252
      3.35599      7.83072      0.01320        -0.003004      0.000204     -0.000854
     -0.34146      4.27290      0.00723        -0.001616     -0.001400     -0.004338
     -0.34138      5.69591      0.00946        -0.009436      0.006589     -0.001136
      3.35624      2.13791      0.00222        -0.014579      0.012289      0.017799
      3.35573      3.56155      0.00139         0.014349     -0.016716      0.009909
     -1.57395      6.40758      0.01311         0.005630     -0.003916     -0.000589
     -1.57385      7.83068      0.01438        -0.005257      0.004066     -0.000242
      5.82093      2.13784      0.01033         0.016092      0.005060     -0.003235
      5.82114      3.56097      0.01156        -0.006429      0.008842     -0.004266
      0.89092      6.40755      0.00907         0.004745      0.002248     -0.002107
      0.89106      7.83068      0.01235        -0.006916      0.004301      0.000238
      4.58871      4.27293      0.00850        -0.013741     -0.006238     -0.011531
      4.58852      5.69606      0.01149         0.002526     -0.001546     -0.004462
      9.51845      0.00337      0.01490         0.005119     -0.004998     -0.000053
      9.51855      1.42644      0.01438        -0.005444      0.005458     -0.000444
      8.28593      2.13803      0.01453         0.007165     -0.003509      0.000275
      8.28613      3.56115      0.01464        -0.004700      0.002175     -0.000165
      7.05356      4.27269      0.01457         0.002744     -0.000942     -0.001184
      7.05362      5.69588      0.01553        -0.002632      0.001574     -0.000339
      5.82112      6.40755      0.01489        -0.003297      0.002021     -0.000414
      5.82102      7.83073      0.01579         0.003100      0.000218     -0.000604
      7.05363      8.54227      0.01631        -0.004841      0.001562      0.000786
     -5.27149      9.96549      0.01495         0.000429     -0.002115     -0.002785
     -2.80638      8.54234      0.01558         0.003225     -0.001461     -0.001634
     -2.80627      9.96553      0.01362        -0.007271      0.000062     -0.004520
     -0.34149      8.54239      0.01378         0.005896     -0.005336      0.000147
     -0.34138      9.96550      0.01354        -0.006028      0.000332     -0.001528
      2.12343      8.54232      0.01336         0.006045     -0.001823      0.000770
      2.12354      9.96544      0.01469        -0.005150      0.004225     -0.002119
      4.58846      8.54235      0.01505         0.003834     -0.002861      0.000861
      4.58853      9.96550      0.01517        -0.002669      0.003566     -0.000115
      3.04930      2.68154      8.40896        -0.007326      0.005935      0.039759
      4.02070      2.02068      8.47339        -1.424814      0.969073     -0.111285
      2.07767      3.34267      8.34951         1.431996     -0.974902      0.070842
 -----------------------------------------------------------------------------------
    total drift:                               -0.000142     -0.000121      0.008915


--------------------------------------------------------------------------------------------------------



  FREE ENERGIE OF THE ION-ELECTRON SYSTEM (eV)
  ---------------------------------------------------
  free  energy   TOTEN  =      -523.31302411 eV

  energy  without entropy=     -523.31302411  energy(sigma->0) =     -523.31302411
 


--------------------------------------------------------------------------------------------------------


    POTLOK:  cpu time    1.4391: real time    1.4476


--------------------------------------------------------------------------------------------------------


 writing wavefunctions
     LOOP+:  cpu time  690.5158: real time  696.2836
    4ORBIT:  cpu time    0.0000: real time    0.0000

 total amount of memory used by VASP MPI-rank0   556209. kBytes
=======================================================================

   base      :      30000. kBytes
   nonl-proj :     184518. kBytes
   fftplans  :      31725. kBytes
   grid      :     282516. kBytes
   one-center:        162. kBytes
   wavefun   :      27288. kBytes
 
  
  
 General timing and accounting informations for this job:
 ========================================================
  
                  Total CPU time used (sec):      727.978
                            User time (sec):      705.256
                          System time (sec):       22.722
                         Elapsed time (sec):      734.927
  
                   Maximum memory used (kb):     1033392.
                   Average memory used (kb):          N/A
  
                          Minor page faults:       197783
                          Major page faults:           85
                 Voluntary context switches:         3707
