 vasp.6.2.1 16May21 (build Nov 06 2021 14:46:37) complex                        
  
 executed on             LinuxIFC date 2025.04.06  09:50:45
 running on  112 total cores
 distrk:  each k-point on   56 cores,    2 groups
 distr:  one band on NCORE=   1 cores,   56 groups


--------------------------------------------------------------------------------------------------------


 INCAR:
   ALGO = Conjugate
   KPAR = 2
   NCORE = 32
   ISMEAR = 0
   SIGMA = 0.01
   PREC = Accurate
   EDIFF = 1E-7
   ENCUT = 1000
   ISIF = 0
   METAGGA = R2SCAN
   LASPH = .TRUE.
   SYMPREC = 1E-7

 POTCAR:    PAW_PBE C_h 06Feb2004                 
 POTCAR:    PAW_PBE O_h 06Feb2004                 
 -----------------------------------------------------------------------------
|                                                                             |
|           W    W    AA    RRRRR   N    N  II  N    N   GGGG   !!!           |
|           W    W   A  A   R    R  NN   N  II  NN   N  G    G  !!!           |
|           W    W  A    A  R    R  N N  N  II  N N  N  G       !!!           |
|           W WW W  AAAAAA  RRRRR   N  N N  II  N  N N  G  GGG   !            |
|           WW  WW  A    A  R   R   N   NN  II  N   NN  G    G                |
|           W    W  A    A  R    R  N    N  II  N    N   GGGG   !!!           |
|                                                                             |
|     The value NCORE = 32 specified in the INCAR file was overwritten,       |
|     because it was not compatible with the 56 processes available:          |
|     NCORE = 1                                                               |
|     was used instead, please check that this makes sense for your           |
|     machine.                                                                |
|                                                                             |
 -----------------------------------------------------------------------------

 -----------------------------------------------------------------------------
|                                                                             |
|           W    W    AA    RRRRR   N    N  II  N    N   GGGG   !!!           |
|           W    W   A  A   R    R  NN   N  II  NN   N  G    G  !!!           |
|           W    W  A    A  R    R  N N  N  II  N N  N  G       !!!           |
|           W WW W  AAAAAA  RRRRR   N  N N  II  N  N N  G  GGG   !            |
|           WW  WW  A    A  R   R   N   NN  II  N   NN  G    G                |
|           W    W  A    A  R    R  N    N  II  N    N   GGGG   !!!           |
|                                                                             |
|     For optimal performance we recommend to set                             |
|       NCORE = 2 up to number-of-cores-per-socket                            |
|     NCORE specifies how many cores store one orbital (NPAR=cpu/NCORE).      |
|     This setting can greatly improve the performance of VASP for DFT.       |
|     The default, NCORE=1 might be grossly inefficient on modern             |
|     multi-core architectures or massively parallel machines. Do your        |
|     own testing! More info at https://www.vasp.at/wiki/index.php/NCORE      |
|     Unfortunately you need to use the default for GW and RPA                |
|     calculations (for HF NCORE is supported but not extensively tested      |
|     yet).                                                                   |
|                                                                             |
 -----------------------------------------------------------------------------

 POTCAR:    PAW_PBE C_h 06Feb2004                 
   VRHFIN =C: s2p2                                                                                  
   LEXCH  = PE                                                                                      
   EATOM  =   147.1560 eV,   10.8157 Ry                                                             
                                                                                                    
   TITEL  = PAW_PBE C_h 06Feb2004                                                                   
   LULTRA =        F    use ultrasoft PP ?                                                          
   IUNSCR =        1    unscreen: 0-lin 1-nonlin 2-no                                               
   RPACOR =    0.800    partial core radius                                                         
   POMASS =   12.011; ZVAL   =    4.000    mass and valenz                                          
   RCORE  =    1.100    outmost cutoff radius                                                       
   RWIGS  =    1.630; RWIGS  =    0.863    wigner-seitz radius (au A)                               
   ENMAX  =  700.000; ENMIN  =  500.000 eV                                                          
   ICORE  =        2    local potential                                                             
   LCOR   =        T    correct aug charges                                                         
   LPAW   =        T    paw PP                                                                      
   EAUG   =  946.768                                                                                
   DEXC   =    0.000                                                                                
   RMAX   =    1.128    core radius for proj-oper                                                   
   RAUG   =    1.300    factor for augmentation sphere                                              
   RDEP   =    1.162    radius for radial grids                                                     
   RDEPT  =    1.088    core radius for aug-charge                                                  
                                                                                                    
   Atomic configuration                                                                             
    4 entries                                                                                       
     n  l   j            E        occ.                                                              
     1  0  0.50      -273.3789   2.0000                                                             
     2  0  0.50       -13.7508   2.0000                                                             
     2  1  0.50        -5.2854   2.0000                                                             
     3  2  1.50        -5.4423   0.0000                                                             
   Description                                                                                      
     l       E           TYP  RCUT    TYP  RCUT                                                     
     0    -13.7508458     23  1.100                                                                 
     0     -8.2022199     23  1.100                                                                 
     1     -5.2854383     23  1.100                                                                 
     1      1.1560700     23  1.100                                                                 
     2     -5.4423304      7  1.100                                                                 
  local pseudopotential read in
  partial core-charges read in
  partial kinetic energy density read in
  atomic valenz-charges read in
  non local Contribution for L=           0  read in
    real space projection operators read in
  non local Contribution for L=           0  read in
    real space projection operators read in
  non local Contribution for L=           1  read in
    real space projection operators read in
  non local Contribution for L=           1  read in
    real space projection operators read in
    PAW grid and wavefunctions read in
 
   number of l-projection  operators is LMAX  =           4
   number of lm-projection operators is LMMAX =           8
 
 POTCAR:    PAW_PBE O_h 06Feb2004                 
   VRHFIN =O: s2p4                                                                                  
   LEXCH  = PE                                                                                      
   EATOM  =   432.3788 eV,   31.7789 Ry                                                             
                                                                                                    
   TITEL  = PAW_PBE O_h 06Feb2004                                                                   
   LULTRA =        F    use ultrasoft PP ?                                                          
   IUNSCR =        1    unscreen: 0-lin 1-nonlin 2-no                                               
   RPACOR =    0.800    partial core radius                                                         
   POMASS =   16.000; ZVAL   =    6.000    mass and valenz                                          
   RCORE  =    1.100    outmost cutoff radius                                                       
   RWIGS  =    1.400; RWIGS  =    0.741    wigner-seitz radius (au A)                               
   ENMAX  =  700.000; ENMIN  =  500.000 eV                                                          
   ICORE  =        2    local potential                                                             
   LCOR   =        T    correct aug charges                                                         
   LPAW   =        T    paw PP                                                                      
   EAUG   =  888.804                                                                                
   DEXC   =    0.000                                                                                
   RMAX   =    1.128    core radius for proj-oper                                                   
   RAUG   =    1.300    factor for augmentation sphere                                              
   RDEP   =    1.125    radius for radial grids                                                     
   RDEPT  =    1.088    core radius for aug-charge                                                  
                                                                                                    
   Atomic configuration                                                                             
    4 entries                                                                                       
     n  l   j            E        occ.                                                              
     1  0  0.50      -514.6923   2.0000                                                             
     2  0  0.50       -23.9615   2.0000                                                             
     2  1  0.50        -9.0305   4.0000                                                             
     3  2  1.50        -9.5241   0.0000                                                             
   Description                                                                                      
     l       E           TYP  RCUT    TYP  RCUT                                                     
     0    -23.9615319     23  1.100                                                                 
     0    -25.3221145     23  1.100                                                                 
     1     -9.0304911     23  1.100                                                                 
     1     -5.4802209     23  1.100                                                                 
     2     -9.5240782      7  1.100                                                                 
  local pseudopotential read in
  partial core-charges read in
  partial kinetic energy density read in
  atomic valenz-charges read in
  non local Contribution for L=           0  read in
    real space projection operators read in
  non local Contribution for L=           0  read in
    real space projection operators read in
  non local Contribution for L=           1  read in
    real space projection operators read in
  non local Contribution for L=           1  read in
    real space projection operators read in
    PAW grid and wavefunctions read in
 
   number of l-projection  operators is LMAX  =           4
   number of lm-projection operators is LMMAX =           8
 
 -----------------------------------------------------------------------------
|                                                                             |
|               ----> ADVICE to this user running VASP <----                  |
|                                                                             |
|     You have a (more or less) 'large supercell' and for larger cells it     |
|     might be more efficient to use real-space projection operators.         |
|     Therefore, try LREAL= Auto in the INCAR file.                           |
|     Mind: For very accurate calculation, you might also keep the            |
|     reciprocal projection scheme (i.e. LREAL=.FALSE.).                      |
|                                                                             |
 -----------------------------------------------------------------------------

  PAW_PBE C_h 06Feb2004                 :
 energy of atom  1       EATOM= -147.1560
 kinetic energy error for atom=    0.0031 (will be added to EATOM!!)
  PAW_PBE O_h 06Feb2004                 :
 energy of atom  2       EATOM= -432.3788
 kinetic energy error for atom=    0.0171 (will be added to EATOM!!)
 
 
 POSCAR:  C  O
  positions in cartesian coordinates
  No initial velocities read in

 METAGGA = R2SCA    LMAXTAU =  6    LMIXTAU =  F

 exchange correlation table for  LEXCH =        8
   RHO(1)=    0.500       N(1)  =     2000
   RHO(2)=  100.500       N(2)  =     4000
 


--------------------------------------------------------------------------------------------------------


 ion  position               nearest neighbor table
   1  0.972  0.000  0.001-  50 1.42   2 1.42  42 1.42
   2  0.039  0.134  0.001-   5 1.42   7 1.42   1 1.42
   3  0.172  0.000  0.001-  42 1.42  44 1.42   4 1.42
   4  0.239  0.134  0.000-   7 1.42   3 1.42  23 1.42
   5  0.972  0.200  0.001-   6 1.42   2 1.42  34 1.42
   6  0.039  0.334  0.001-   5 1.42  21 1.42  11 1.42
   7  0.172  0.200  0.000-   8 1.42   2 1.42   4 1.42
   8  0.239  0.334  0.000-  13 1.42   7 1.42  21 1.42
   9  0.372  0.000  0.001-  10 1.42  44 1.42  46 1.42
  10  0.439  0.134  0.000-  27 1.42   9 1.42  23 1.42
  11  0.972  0.400  0.001-  12 1.42  36 1.42   6 1.42
  12  0.039  0.534  0.001-  25 1.42  11 1.42  17 1.42
  13  0.372  0.400  0.000-   8 1.42  14 1.42  24 1.42
  14  0.439  0.534  0.000-  13 1.42  29 1.42  19 1.42
  15  0.572  0.000  0.001-  46 1.42  16 1.42  48 1.42
  16  0.639  0.134  0.001-  15 1.42  35 1.42  27 1.42
  17  0.972  0.600  0.001-  38 1.42  18 1.42  12 1.42
  18  0.039  0.734  0.001-  43 1.42  41 1.42  17 1.42
  19  0.572  0.600  0.001-  14 1.42  20 1.42  32 1.42
  20  0.639  0.734  0.001-  49 1.42  19 1.42  47 1.42
  21  0.172  0.400  0.000-  22 1.42   8 1.42   6 1.42
  22  0.239  0.534  0.000-  21 1.42  29 1.42  25 1.42
  23  0.372  0.200  0.000-  10 1.42   4 1.42  24 1.42
  24  0.439  0.334  0.000-  13 1.42  31 1.42  23 1.42
  25  0.172  0.600  0.001-  26 1.42  12 1.42  22 1.42
  26  0.239  0.734  0.001-  25 1.42  45 1.42  43 1.42
  27  0.572  0.200  0.001-  10 1.42  28 1.42  16 1.42
  28  0.639  0.334  0.001-  27 1.42  37 1.42  31 1.42
  29  0.372  0.600  0.000-  22 1.42  14 1.42  30 1.42
  30  0.439  0.734  0.001-  47 1.42  29 1.42  45 1.42
  31  0.572  0.400  0.000-  32 1.42  28 1.42  24 1.42
  32  0.639  0.534  0.001-  31 1.42  39 1.42  19 1.42
  33  0.772  0.000  0.001-  34 1.42  48 1.42  50 1.42
  34  0.839  0.134  0.001-  33 1.42   5 1.42  35 1.42
  35  0.772  0.200  0.001-  36 1.42  16 1.42  34 1.42
  36  0.839  0.334  0.001-  35 1.42  11 1.42  37 1.42
  37  0.772  0.400  0.001-  28 1.42  38 1.42  36 1.42
  38  0.839  0.534  0.001-  17 1.42  37 1.42  39 1.42
  39  0.772  0.600  0.001-  40 1.42  38 1.42  32 1.42
  40  0.839  0.734  0.001-  39 1.42  49 1.42  41 1.42
  41  0.972  0.800  0.001-  18 1.42  42 1.42  40 1.42
  42  0.039  0.934  0.001-   3 1.42  41 1.42   1 1.42
  43  0.172  0.800  0.001-  18 1.42  44 1.42  26 1.42
  44  0.239  0.934  0.001-   9 1.42  43 1.42   3 1.42
  45  0.372  0.800  0.001-  26 1.42  46 1.42  30 1.42
  46  0.439  0.934  0.001-  15 1.42  45 1.42   9 1.42
  47  0.572  0.800  0.001-  30 1.42  48 1.42  20 1.42
  48  0.639  0.934  0.001-  47 1.42  33 1.42  15 1.42
  49  0.772  0.800  0.001-  50 1.42  20 1.42  40 1.42
  50  0.839  0.934  0.001-  49 1.42   1 1.42  33 1.42
  51  0.373  0.251  0.125-  52 1.18  53 1.18
  52  0.421  0.189  0.128-  51 1.18
  53  0.325  0.313  0.122-  51 1.18
 
  LATTYP: Found a hexagonal cell.
 ALAT       =    12.3250000000
 C/A-ratio  =     1.6227180527
  
  Lattice vectors:
  
 A1 = (  12.3250000000,   0.0000000000,   0.0000000000)
 A2 = (  -6.1625000000,  10.6737631016,   0.0000000000)
 A3 = (   0.0000000000,   0.0000000000,  20.0000000000)


Analysis of symmetry for initial positions (statically):
=====================================================================
 Subroutine PRICEL returns:
 Original cell was already a primitive cell.
 

 Routine SETGRP: Setting up the symmetry group for a 
 hexagonal supercell.


 Subroutine GETGRP returns: Found  1 space group operations
 (whereof  1 operations were pure point group operations)
 out of a pool of 24 trial point group operations.


The static configuration has the point symmetry C_1 .


Analysis of symmetry for dynamics (positions and initial velocities):
=====================================================================
 Subroutine PRICEL returns:
 Original cell was already a primitive cell.
 

 Routine SETGRP: Setting up the symmetry group for a 
 hexagonal supercell.


 Subroutine GETGRP returns: Found  1 space group operations
 (whereof  1 operations were pure point group operations)
 out of a pool of 24 trial point group operations.


The dynamic configuration has the point symmetry C_1 .


 Subroutine INISYM returns: Found  1 space group operations
 (whereof  1 operations are pure point group operations),
 and found     1 'primitive' translations


----------------------------------------------------------------------------------------

                                     Primitive cell                                     

  volume of cell :    2631.0826

  direct lattice vectors                    reciprocal lattice vectors
    12.325000000  0.000000000  0.000000000     0.081135903  0.046843835  0.000000000
    -6.162500000 10.673763102  0.000000000     0.000000000  0.093687670  0.000000000
     0.000000000  0.000000000 20.000000000     0.000000000  0.000000000  0.050000000

  length of vectors
    12.325000000 12.325000000 20.000000000     0.093687670  0.093687670  0.050000000

  position of ions in fractional coordinates (direct lattice)
     0.972450841  0.000320818  0.000708389
     0.039118382  0.133659505  0.000550216
     0.172443627  0.000295449  0.000624535
     0.239096278  0.133647917  0.000320585
     0.972452058  0.200322012  0.000606523
     0.039128360  0.333643771  0.000555187
     0.172451764  0.200354552  0.000273959
     0.239124359  0.333665720  0.000090325
     0.372465565  0.000324403  0.000567391
     0.439137473  0.133619939  0.000322923
     0.972449824  0.400309362  0.000684513
     0.039124981  0.533636789  0.000716763
     0.372416176  0.400329481  0.000000000
     0.439099602  0.533638981  0.000290518
     0.572443676  0.000312125  0.000699475
     0.639110207  0.133631751  0.000684093
     0.972452703  0.600305653  0.000800361
     0.039124495  0.733640359  0.000818141
     0.572433471  0.600306242  0.000503618
     0.639111888  0.733641879  0.000659881
     0.172454630  0.400318228  0.000361306
     0.239120185  0.533636548  0.000473136
     0.372459750  0.200295993  0.000111246
     0.439107096  0.333673419  0.000069702
     0.172452155  0.600311506  0.000655425
     0.239123371  0.733638574  0.000718912
     0.572431082  0.200289171  0.000516621
     0.639112773  0.333618630  0.000577970
     0.372439808  0.600308022  0.000453556
     0.439116090  0.733637858  0.000617737
     0.572469358  0.400320504  0.000424897
     0.639119408  0.533650873  0.000574513
     0.772445723  0.000315427  0.000745201
     0.839116277  0.133640203  0.000719132
     0.772440513  0.200307432  0.000726291
     0.839120241  0.333635728  0.000731834
     0.772446320  0.400298367  0.000728722
     0.839118980  0.533633964  0.000776376
     0.772456143  0.600308173  0.000744639
     0.839115033  0.733643180  0.000789390
     0.972455313  0.800305582  0.000815291
     0.039114714  0.933643289  0.000747563
     0.172457971  0.800312211  0.000779216
     0.239134551  0.933647193  0.000681063
     0.372451396  0.800316674  0.000689249
     0.439124489  0.933644769  0.000676788
     0.572441101  0.800310054  0.000668168
     0.639115067  0.933638985  0.000734556
     0.772445098  0.800313187  0.000752577
     0.839116614  0.933644338  0.000758538
     0.373021009  0.251226878  0.125000000
     0.420879805  0.189313152  0.128221093
     0.325156981  0.313167186  0.122027256

  ion indices of the primitive-cell ions
   primitive index   ion index
                 1           1
                 2           2
                 3           3
                 4           4
                 5           5
                 6           6
                 7           7
                 8           8
                 9           9
                10          10
                11          11
                12          12
                13          13
                14          14
                15          15
                16          16
                17          17
                18          18
                19          19
                20          20
                21          21
                22          22
                23          23
                24          24
                25          25
                26          26
                27          27
                28          28
                29          29
                30          30
                31          31
                32          32
                33          33
                34          34
                35          35
                36          36
                37          37
                38          38
                39          39
                40          40
                41          41
                42          42
                43          43
                44          44
                45          45
                46          46
                47          47
                48          48
                49          49
                50          50
                51          51
                52          52
                53          53

----------------------------------------------------------------------------------------

 
 
 KPOINTS: auto                                    

Automatic generation of k-mesh.
 Grid dimensions read from file:
 generate k-points for:    1    1    1

 Generating k-lattice:

  Cartesian coordinates                     Fractional coordinates (reciprocal lattice)
     0.081135903  0.046843835  0.000000000     1.000000000 -0.000000000  0.000000000
     0.000000000  0.093687670  0.000000000     0.000000000  1.000000000  0.000000000
     0.000000000  0.000000000  0.050000000     0.000000000  0.000000000  1.000000000

  Length of vectors
     0.093687670  0.093687670  0.050000000

  Shift w.r.t. Gamma in fractional coordinates (k-lattice)
     0.000000000  0.000000000  0.000000000

 
 Subroutine IBZKPT returns following result:
 ===========================================
 
 Found      1 irreducible k-points:
 
 Following reciprocal coordinates:
            Coordinates               Weight
  0.000000  0.000000  0.000000      1.000000
 
 Following cartesian coordinates:
            Coordinates               Weight
  0.000000  0.000000  0.000000      1.000000
 


--------------------------------------------------------------------------------------------------------




 Dimension of arrays:
   k-points           NKPTS =      1   k-points in BZ     NKDIM =      1   number of bands    NBANDS=    168
   number of dos      NEDOS =    301   number of ions     NIONS =     53
   non local maximal  LDIM  =      4   non local SUM 2l+1 LMDIM =      8
   total plane-waves  NPLWV = ******
   max r-space proj   IRMAX =      1   max aug-charges    IRDMAX=   9736
   dimension x,y,z NGX =   128 NGY =  128 NGZ =  210
   dimension x,y,z NGXF=   256 NGYF=  256 NGZF=  420
   support grid    NGXF=   256 NGYF=  256 NGZF=  420
   ions per type =              51   2
   NGX,Y,Z   is equivalent  to a cutoff of  17.27, 17.27, 17.46 a.u.
   NGXF,Y,Z  is equivalent  to a cutoff of  34.53, 34.53, 34.91 a.u.

 SYSTEM =  unknown system                          
 POSCAR =   C  O                                   

 Startparameter for this run:
   NWRITE =      2    write-flag & timer
   PREC   = accura    normal or accurate (medium, high low for compatibility)
   ISTART =      0    job   : 0-new  1-cont  2-samecut
   ICHARG =      2    charge: 1-file 2-atom 10-const
   ISPIN  =      1    spin polarized calculation?
   LNONCOLLINEAR =      F non collinear calculations
   LSORBIT =      F    spin-orbit coupling
   INIWAV =      1    electr: 0-lowe 1-rand  2-diag
   LASPH  =      T    aspherical Exc in radial PAW
 Electronic Relaxation 1
   ENCUT  = 1000.0 eV  73.50 Ry    8.57 a.u.  31.78 31.78 51.57*2*pi/ulx,y,z
   ENINI  = 1000.0     initial cutoff
   ENAUG  =  946.8 eV  augmentation charge cutoff
   NELM   =     60;   NELMIN=  2; NELMDL= -5     # of ELM steps 
   EDIFF  = 0.1E-06   stopping-criterion for ELM
   LREAL  =      F    real-space projection
   NLSPLINE    = F    spline interpolate recip. space projectors
   LCOMPAT=      F    compatible to vasp.4.4
   GGA_COMPAT  = T    GGA compatible to vasp.4.4-vasp.4.6
   LMAXPAW     = -100 max onsite density
   LMAXMIX     =    2 max onsite mixed and CHGCAR
   VOSKOWN=      0    Vosko Wilk Nusair interpolation
   ROPT   =    0.00000   0.00000
 Ionic relaxation
   EDIFFG = 0.1E-05   stopping-criterion for IOM
   NSW    =      0    number of steps for IOM
   NBLOCK =      1;   KBLOCK =      1    inner block; outer block 
   IBRION =     -1    ionic relax: 0-MD 1-quasi-New 2-CG
   NFREE  =      0    steps in history (QN), initial steepest desc. (CG)
   ISIF   =      0    stress and relaxation
   IWAVPR =     10    prediction:  0-non 1-charg 2-wave 3-comb
   ISYM   =      2    0-nonsym 1-usesym 2-fastsym
   LCORR  =      T    Harris-Foulkes like correction to forces

   POTIM  = 0.5000    time-step for ionic-motion
   TEIN   =    0.0    initial temperature
   TEBEG  =    0.0;   TEEND  =   0.0 temperature during run
   SMASS  =  -3.00    Nose mass-parameter (am)
   estimated Nose-frequenzy (Omega)   =  0.10E-29 period in steps = 0.13E+47 mass=  -0.347E-26a.u.
   SCALEE = 1.0000    scale energy and forces
   NPACO  =    256;   APACO  = 16.0  distance and # of slots for P.C.
   PSTRESS=    0.0 pullay stress

  Mass of Ions in am
   POMASS =  12.01 16.00
  Ionic Valenz
   ZVAL   =   4.00  6.00
  Atomic Wigner-Seitz radii
   RWIGS  =  -1.00 -1.00
  virtual crystal weights 
   VCA    =   1.00  1.00
   NELECT =     216.0000    total number of electrons
   NUPDOWN=      -1.0000    fix difference up-down

 DOS related values:
   EMIN   =  10.00;   EMAX   =-10.00  energy-range for DOS
   EFERMI =   0.00
   ISMEAR =     0;   SIGMA  =   0.01  broadening in eV -4-tet -1-fermi 0-gaus

 Electronic relaxation 2 (details)
   IALGO  =     58    algorithm
   LDIAG  =      T    sub-space diagonalisation (order eigenvalues)
   LSUBROT=      F    optimize rotation matrix (better conditioning)
   TURBO    =      0    0=normal 1=particle mesh
   IRESTART =      0    0=no restart 2=restart with 2 vectors
   NREBOOT  =      0    no. of reboots
   NMIN     =      0    reboot dimension
   EREF     =   0.00    reference energy to select bands
   IMIX   =      4    mixing-type and parameters
     AMIX     =   0.40;   BMIX     =  1.00
     AMIX_MAG =   1.60;   BMIX_MAG =  1.00
     AMIN     =   0.10
     WC   =   100.;   INIMIX=   1;  MIXPRE=   1;  MAXMIX= -45

 Intra band minimization:
   WEIMIN = 0.0000     energy-eigenvalue tresh-hold
   EBREAK =  0.15E-09  absolut break condition
   DEPER  =   0.30     relativ break condition  

   TIME   =   0.40     timestep for ELM

  volume/ion in A,a.u.               =      49.64       335.01
  Fermi-wavevector in a.u.,A,eV,Ry     =   0.711510  1.344560  6.887909  0.506247
  Thomas-Fermi vector in A             =   1.798641
 
 Write flags
   LWAVE        =      T    write WAVECAR
   LDOWNSAMPLE  =      F    k-point downsampling of WAVECAR
   LCHARG       =      T    write CHGCAR
   LVTOT        =      F    write LOCPOT, total local potential
   LVHAR        =      F    write LOCPOT, Hartree potential only
   LELF         =      F    write electronic localiz. function (ELF)
   LORBIT       =      0    0 simple, 1 ext, 2 COOP (PROOUT), +10 PAW based schemes


 Dipole corrections
   LMONO  =      F    monopole corrections only (constant potential shift)
   LDIPOL =      F    correct potential (dipole corrections)
   IDIPOL =      0    1-x, 2-y, 3-z, 4-all directions 
   EPSILON=  1.0000000 bulk dielectric constant

 Exchange correlation treatment:
   GGA     =    --    GGA type
   LEXCH   =     8    internal setting for exchange type
   VOSKOWN=      0    Vosko Wilk Nusair interpolation
   LHFCALC =     F    Hartree Fock is set to
   LHFONE  =     F    Hartree Fock one center treatment
   AEXX    =    0.0000 exact exchange contribution

 Linear response parameters
   LEPSILON=     F    determine dielectric tensor
   LRPA    =     F    only Hartree local field effects (RPA)
   LNABLA  =     F    use nabla operator in PAW spheres
   LVEL    =     F    velocity operator in full k-point grid
   LINTERFAST=   F  fast interpolation
   KINTER  =     0    interpolate to denser k-point grid
   CSHIFT  =0.1000    complex shift for real part using Kramers Kronig
   OMEGAMAX=  -1.0    maximum frequency
   DEG_THRESHOLD= 0.2000000E-02 threshold for treating states as degnerate
   RTIME   =   -0.100 relaxation time in fs
  (WPLASMAI=    0.000 imaginary part of plasma frequency in eV, 0.658/RTIME)
   DFIELD  = 0.0000000 0.0000000 0.0000000 field for delta impulse in time
 
 Orbital magnetization related:
   ORBITALMAG=     F  switch on orbital magnetization
   LCHIMAG   =     F  perturbation theory with respect to B field
   DQ        =  0.001000  dq finite difference perturbation B field
   LLRAUG    =     F  two centre corrections for induced B field



--------------------------------------------------------------------------------------------------------


 Static calculation
 charge density and potential will be updated during run
 non-spin polarized calculation
 Conjugate gradient for all bands (Freysoldt, et al. PRB 79, 241103 (2009))
 preconditioned conjugated gradient                                        
 perform sub-space diagonalisation
    before iterative eigenvector-optimisation
 modified Broyden-mixing scheme, WC =      100.0
 initial mixing is a Kerker type mixing with AMIX =  0.4000 and BMIX =      1.0000
 Hartree-type preconditioning will be used
 using additional bands           60
 reciprocal scheme for non local part
 use partial core corrections
 no Harris-corrections to forces 
 use gradient corrections 
 use of overlap-Matrix (Vanderbilt PP)
 Gauss-broadening in eV      SIGMA  =   0.01


--------------------------------------------------------------------------------------------------------


  energy-cutoff  :     1000.00
  volume of cell :     2631.08
      direct lattice vectors                 reciprocal lattice vectors
    12.325000000  0.000000000  0.000000000     0.081135903  0.046843835  0.000000000
    -6.162500000 10.673763102  0.000000000     0.000000000  0.093687670  0.000000000
     0.000000000  0.000000000 20.000000000     0.000000000  0.000000000  0.050000000

  length of vectors
    12.325000000 12.325000000 20.000000000     0.093687670  0.093687670  0.050000000


 
 k-points in units of 2pi/SCALE and weight: auto                                    
   0.00000000  0.00000000  0.00000000       1.000
 
 k-points in reciprocal lattice and weights: auto                                    
   0.00000000  0.00000000  0.00000000       1.000
 
 position of ions in fractional coordinates (direct lattice) 
   0.97245084  0.00032082  0.00070839
   0.03911838  0.13365950  0.00055022
   0.17244363  0.00029545  0.00062454
   0.23909628  0.13364792  0.00032058
   0.97245206  0.20032201  0.00060652
   0.03912836  0.33364377  0.00055519
   0.17245176  0.20035455  0.00027396
   0.23912436  0.33366572  0.00009033
   0.37246557  0.00032440  0.00056739
   0.43913747  0.13361994  0.00032292
   0.97244982  0.40030936  0.00068451
   0.03912498  0.53363679  0.00071676
   0.37241618  0.40032948  0.00000000
   0.43909960  0.53363898  0.00029052
   0.57244368  0.00031213  0.00069947
   0.63911021  0.13363175  0.00068409
   0.97245270  0.60030565  0.00080036
   0.03912449  0.73364036  0.00081814
   0.57243347  0.60030624  0.00050362
   0.63911189  0.73364188  0.00065988
   0.17245463  0.40031823  0.00036131
   0.23912018  0.53363655  0.00047314
   0.37245975  0.20029599  0.00011125
   0.43910710  0.33367342  0.00006970
   0.17245216  0.60031151  0.00065542
   0.23912337  0.73363857  0.00071891
   0.57243108  0.20028917  0.00051662
   0.63911277  0.33361863  0.00057797
   0.37243981  0.60030802  0.00045356
   0.43911609  0.73363786  0.00061774
   0.57246936  0.40032050  0.00042490
   0.63911941  0.53365087  0.00057451
   0.77244572  0.00031543  0.00074520
   0.83911628  0.13364020  0.00071913
   0.77244051  0.20030743  0.00072629
   0.83912024  0.33363573  0.00073183
   0.77244632  0.40029837  0.00072872
   0.83911898  0.53363396  0.00077638
   0.77245614  0.60030817  0.00074464
   0.83911503  0.73364318  0.00078939
   0.97245531  0.80030558  0.00081529
   0.03911471  0.93364329  0.00074756
   0.17245797  0.80031221  0.00077922
   0.23913455  0.93364719  0.00068106
   0.37245140  0.80031667  0.00068925
   0.43912449  0.93364477  0.00067679
   0.57244110  0.80031005  0.00066817
   0.63911507  0.93363899  0.00073456
   0.77244510  0.80031319  0.00075258
   0.83911661  0.93364434  0.00075854
   0.37302101  0.25122688  0.12500000
   0.42087980  0.18931315  0.12822109
   0.32515698  0.31316719  0.12202726
 
 position of ions in cartesian coordinates  (Angst):
  11.98347958  0.00342433  0.01416777
  -0.34154264  1.42664989  0.01100432
   2.12354700  0.00315355  0.01249070
   2.12325634  1.42652621  0.00641170
  10.75098721  2.13818970  0.01213047
  -1.57382270  3.56123457  0.01110375
   0.89078307  2.13853702  0.00547917
   0.89099273  3.56146885  0.00180651
   4.58863896  0.00346260  0.01134782
   4.58893648  1.42622757  0.00645846
   9.51853763  4.27280730  0.01369027
  -2.80632132  5.69591267  0.01433526
   2.12299894  4.27302204  0.00000000
   2.12335237  5.69593607  0.00581036
   7.05344483  0.00333155  0.01398950
   7.05352764  1.42635365  0.01368187
   8.28609598  6.40752033  0.01600723
  -4.03884931  7.83070339  0.01636283
   3.35585531  6.40752662  0.01007237
   3.35598594  7.83071962  0.01319763
  -0.34145776  4.27290193  0.00722612
  -0.34137895  5.69591010  0.00946273
   3.35624236  2.13791198  0.00222492
   3.35573251  3.56155103  0.00139405
  -1.57394684  6.40758280  0.01310850
  -1.57385216  7.83068434  0.01437823
   5.82093107  2.13783916  0.01033241
   5.82114012  3.56096622  0.01155939
   0.89092245  6.40754561  0.00907111
   0.89106251  7.83067670  0.01235474
   4.58870974  4.27292622  0.00849795
   4.58852320  5.69606300  0.01149026
   9.51844972  0.00336679  0.01490402
   9.51855036  1.42644387  0.01438264
   8.28593477  2.13803408  0.01452582
   8.28612680  3.56114872  0.01463668
   7.05356221  4.27268994  0.01457444
   7.05362213  5.69588251  0.01552751
   5.82112285  6.40754723  0.01489279
   5.82101669  7.83073350  0.01578780
   7.05362858  8.54227219  0.01630582
  -5.27148792  9.96548729  0.01495127
  -2.80637951  8.54234295  0.01558431
  -2.80626749  9.96552896  0.01362126
  -0.34148805  8.54239058  0.01378498
  -0.34137657  9.96550309  0.01353576
   2.12342586  8.54231992  0.01336337
   2.12354296  9.96544135  0.01469111
   4.58845581  8.54235337  0.01505154
   4.58852904  9.96549848  0.01517076
   3.04929830  2.68153618  2.50000000
   4.02070129  2.02068374  2.56442186
   2.07766701  3.34267235  2.44054513
 


--------------------------------------------------------------------------------------------------------


 k-point   1 :   0.0000 0.0000 0.0000  plane waves:  189031

 maximum and minimum number of plane-waves per node :    189031   189031

 maximum number of plane-waves:    189031
 maximum index in each direction: 
   IXMAX=   31   IYMAX=   31   IZMAX=   51
   IXMIN=  -31   IYMIN=  -31   IZMIN=  -51


 serial   3D FFT for wavefunctions
 parallel 3D FFT for charge:
    minimum data exchange during FFTs selected (reduces bandwidth)


 total amount of memory used by VASP MPI-rank0   556209. kBytes
=======================================================================

   base      :      30000. kBytes
   nonl-proj :     184518. kBytes
   fftplans  :      31725. kBytes
   grid      :     282516. kBytes
   one-center:        162. kBytes
   wavefun   :      27288. kBytes
 
     INWAV:  cpu time    0.0000: real time    0.0000
 Broyden mixing: mesh for mixing (old mesh)
   NGX = 63   NGY = 63   NGZ =103
  (NGX  =256   NGY  =256   NGZ  =420)
  gives a total of 408807 points

 initial charge density was supplied:
 charge density of overlapping atoms calculated
 number of electron     216.0000000 magnetization 
 keeping initial charge density in first step


--------------------------------------------------------------------------------------------------------


 Maximum index for augmentation-charges          459 (set IRDMAX)


--------------------------------------------------------------------------------------------------------


 First call to EWALD:  gamma=   0.128
 Maximum number of real-space cells 3x 3x 2
 Maximum number of reciprocal cells 3x 3x 4

    FEWALD:  cpu time    0.0028: real time    0.0028


--------------------------------------- Iteration      1(   1)  ---------------------------------------


    POTLOK:  cpu time    1.2585: real time    1.3534
    SETDIJ:  cpu time    0.1755: real time    0.1877
    TRIAL :  cpu time   21.7428: real time   22.1687
    CORREC:  cpu time    0.0005: real time    0.0006
    --------------------------------------------
      LOOP:  cpu time   23.1893: real time   23.7241

 eigenvalue-minimisations  :   336
 total energy-change (2. order) : 0.2441508E+04  (-0.1181006E+05)
 number of electron     216.0000000 magnetization 
 augmentation part      216.0000000 magnetization 

 Free energy of the ion-electron system (eV)
  ---------------------------------------------------
  alpha Z        PSCENC =        59.93625244
  Ewald energy   TEWEN  =     35411.26856477
  -Hartree energ DENC   =    -41583.62027119
  -exchange      EXHF   =         0.00000000
  -V(xc)+E(xc)   XCENC  =       605.88078022
  PAW double counting   =      6340.10990386    -6200.63067283
  entropy T*S    EENTRO =        -0.00000000
  eigenvalues    EBANDS =      -560.96011708
  atomic energy  EATOM  =      8369.52358910
  ---------------------------------------------------
  free energy    TOTEN  =      2441.50802928 eV

  energy without entropy =     2441.50802928  energy(sigma->0) =     2441.50802928


--------------------------------------------------------------------------------------------------------




--------------------------------------- Iteration      1(   2)  ---------------------------------------


    TRIAL :  cpu time   35.5498: real time   35.8603
    CORREC:  cpu time    0.0001: real time    0.0001
    --------------------------------------------
      LOOP:  cpu time   35.5685: real time   35.8828

 eigenvalue-minimisations  :   672
 total energy-change (2. order) :-0.2491836E+04  (-0.2375334E+04)
 number of electron     216.0000000 magnetization 
 augmentation part      216.0000000 magnetization 

 Free energy of the ion-electron system (eV)
  ---------------------------------------------------
  alpha Z        PSCENC =        59.93625244
  Ewald energy   TEWEN  =     35411.26856477
  -Hartree energ DENC   =    -41583.62027119
  -exchange      EXHF   =         0.00000000
  -V(xc)+E(xc)   XCENC  =       605.88078022
  PAW double counting   =      6340.10990386    -6200.63067283
  entropy T*S    EENTRO =        -0.00000000
  eigenvalues    EBANDS =     -3052.79597297
  atomic energy  EATOM  =      8369.52358910
  ---------------------------------------------------
  free energy    TOTEN  =       -50.32782660 eV

  energy without entropy =      -50.32782660  energy(sigma->0) =      -50.32782660


--------------------------------------------------------------------------------------------------------




--------------------------------------- Iteration      1(   3)  ---------------------------------------


    TRIAL :  cpu time   23.9744: real time   24.2125
    CORREC:  cpu time    0.0001: real time    0.0001
    --------------------------------------------
      LOOP:  cpu time   24.0014: real time   24.2578

 eigenvalue-minimisations  :   392
 total energy-change (2. order) :-0.5317524E+03  (-0.5288535E+03)
 number of electron     216.0000000 magnetization 
 augmentation part      216.0000000 magnetization 

 Free energy of the ion-electron system (eV)
  ---------------------------------------------------
  alpha Z        PSCENC =        59.93625244
  Ewald energy   TEWEN  =     35411.26856477
  -Hartree energ DENC   =    -41583.62027119
  -exchange      EXHF   =         0.00000000
  -V(xc)+E(xc)   XCENC  =       605.88078022
  PAW double counting   =      6340.10990386    -6200.63067283
  entropy T*S    EENTRO =        -0.00000000
  eigenvalues    EBANDS =     -3584.54841745
  atomic energy  EATOM  =      8369.52358910
  ---------------------------------------------------
  free energy    TOTEN  =      -582.08027108 eV

  energy without entropy =     -582.08027108  energy(sigma->0) =     -582.08027108


--------------------------------------------------------------------------------------------------------




--------------------------------------- Iteration      1(   4)  ---------------------------------------


    TRIAL :  cpu time   26.3290: real time   25.8138
    CORREC:  cpu time    0.0001: real time    0.0001
    --------------------------------------------
      LOOP:  cpu time   26.4171: real time   25.9196

 eigenvalue-minimisations  :   448
 total energy-change (2. order) :-0.2412443E+02  (-0.2397446E+02)
 number of electron     216.0000000 magnetization 
 augmentation part      216.0000000 magnetization 

 Free energy of the ion-electron system (eV)
  ---------------------------------------------------
  alpha Z        PSCENC =        59.93625244
  Ewald energy   TEWEN  =     35411.26856477
  -Hartree energ DENC   =    -41583.62027119
  -exchange      EXHF   =         0.00000000
  -V(xc)+E(xc)   XCENC  =       605.88078022
  PAW double counting   =      6340.10990386    -6200.63067283
  entropy T*S    EENTRO =        -0.00000000
  eigenvalues    EBANDS =     -3608.67284635
  atomic energy  EATOM  =      8369.52358910
  ---------------------------------------------------
  free energy    TOTEN  =      -606.20469998 eV

  energy without entropy =     -606.20469998  energy(sigma->0) =     -606.20469998


--------------------------------------------------------------------------------------------------------




--------------------------------------- Iteration      1(   5)  ---------------------------------------


    TRIAL :  cpu time   26.3379: real time   26.5542
    CORREC:  cpu time    0.0001: real time    0.0001
    CHARGE:  cpu time    2.2868: real time    2.3035
    --------------------------------------------
      LOOP:  cpu time   28.6475: real time   28.8911

 eigenvalue-minimisations  :   448
 total energy-change (2. order) :-0.8428518E+00  (-0.8387156E+00)
 number of electron     216.0000000 magnetization 
 augmentation part       -0.4483777 magnetization 

 Free energy of the ion-electron system (eV)
  ---------------------------------------------------
  alpha Z        PSCENC =        59.93625244
  Ewald energy   TEWEN  =     35411.26856477
  -Hartree energ DENC   =    -41583.62027119
  -exchange      EXHF   =         0.00000000
  -V(xc)+E(xc)   XCENC  =       605.88078022
  PAW double counting   =      6340.10990386    -6200.63067283
  entropy T*S    EENTRO =        -0.00000000
  eigenvalues    EBANDS =     -3609.51569818
  atomic energy  EATOM  =      8369.52358910
  ---------------------------------------------------
  free energy    TOTEN  =      -607.04755181 eV

  energy without entropy =     -607.04755181  energy(sigma->0) =     -607.04755181


--------------------------------------------------------------------------------------------------------




--------------------------------------- Iteration      1(   6)  ---------------------------------------


    POTLOK:  cpu time    1.2391: real time    1.2465
    SETDIJ:  cpu time    0.2003: real time    0.2015
    TRIAL :  cpu time   15.4983: real time   15.6200
    CORREC:  cpu time    6.8745: real time    6.9220
    CHARGE:  cpu time    2.2746: real time    2.2909
    --------------------------------------------
      LOOP:  cpu time   26.1615: real time   26.3577

 eigenvalue-minimisations  :     0
 total energy-change (2. order) : 0.9756301E+02  (-0.1121740E+02)
 number of electron     216.0000000 magnetization 
 augmentation part       -0.5070888 magnetization 

 Free energy of the ion-electron system (eV)
  ---------------------------------------------------
  alpha Z        PSCENC =        59.93625244
  Ewald energy   TEWEN  =     35411.26856477
  -Hartree energ DENC   =    -42902.99823962
  -exchange      EXHF   =         0.00000000
  -V(xc)+E(xc)   XCENC  =       676.80525035
  PAW double counting   =    119563.89571835  -119424.28872188
  entropy T*S    EENTRO =        -0.00000000
  eigenvalues    EBANDS =     -2263.62695035
  atomic energy  EATOM  =      8369.52358910
  ---------------------------------------------------
  free energy    TOTEN  =      -509.48453684 eV

  energy without entropy =     -509.48453684  energy(sigma->0) =     -509.48453684


--------------------------------------------------------------------------------------------------------




--------------------------------------- Iteration      1(   7)  ---------------------------------------


    POTLOK:  cpu time    1.2432: real time    1.2503
    SETDIJ:  cpu time    0.1880: real time    0.1885
    TRIAL :  cpu time   15.5249: real time   15.6390
    CORREC:  cpu time    6.8495: real time    6.9129
    CHARGE:  cpu time    2.2798: real time    2.2957
    --------------------------------------------
      LOOP:  cpu time   26.1284: real time   26.3335

 eigenvalue-minimisations  :     0
 total energy-change (2. order) :-0.1122392E+02  (-0.1396087E+01)
 number of electron     216.0000000 magnetization 
 augmentation part       -0.5388126 magnetization 

 Free energy of the ion-electron system (eV)
  ---------------------------------------------------
  alpha Z        PSCENC =        59.93625244
  Ewald energy   TEWEN  =     35411.26856477
  -Hartree energ DENC   =    -42492.18218737
  -exchange      EXHF   =         0.00000000
  -V(xc)+E(xc)   XCENC  =       659.38828905
  PAW double counting   =    139394.99224528  -139253.66837350
  entropy T*S    EENTRO =        -0.00000000
  eigenvalues    EBANDS =     -2669.96683295
  atomic energy  EATOM  =      8369.52358910
  ---------------------------------------------------
  free energy    TOTEN  =      -520.70845319 eV

  energy without entropy =     -520.70845319  energy(sigma->0) =     -520.70845319


--------------------------------------------------------------------------------------------------------




--------------------------------------- Iteration      1(   8)  ---------------------------------------


    POTLOK:  cpu time    1.2466: real time    1.2537
    SETDIJ:  cpu time    0.1884: real time    0.1890
    TRIAL :  cpu time   15.5266: real time   15.6367
    CORREC:  cpu time    6.8586: real time    6.9144
    CHARGE:  cpu time    2.2776: real time    2.2933
    --------------------------------------------
      LOOP:  cpu time   26.1568: real time   26.3481

 eigenvalue-minimisations  :     0
 total energy-change (2. order) :-0.1396884E+01  (-0.4424973E+00)
 number of electron     216.0000000 magnetization 
 augmentation part       -0.5403984 magnetization 

 Free energy of the ion-electron system (eV)
  ---------------------------------------------------
  alpha Z        PSCENC =        59.93625244
  Ewald energy   TEWEN  =     35411.26856477
  -Hartree energ DENC   =    -42471.96993542
  -exchange      EXHF   =         0.00000000
  -V(xc)+E(xc)   XCENC  =       658.46579926
  PAW double counting   =    149259.93181173  -149118.48290875
  entropy T*S    EENTRO =        -0.00000000
  eigenvalues    EBANDS =     -2690.77851000
  atomic energy  EATOM  =      8369.52358910
  ---------------------------------------------------
  free energy    TOTEN  =      -522.10533687 eV

  energy without entropy =     -522.10533687  energy(sigma->0) =     -522.10533687


--------------------------------------------------------------------------------------------------------




--------------------------------------- Iteration      1(   9)  ---------------------------------------


    POTLOK:  cpu time    1.2424: real time    1.2498
    SETDIJ:  cpu time    0.1915: real time    0.1921
    TRIAL :  cpu time   15.5080: real time   15.6217
    CORREC:  cpu time    6.8709: real time    6.9183
    CHARGE:  cpu time    2.2851: real time    2.3035
    --------------------------------------------
      LOOP:  cpu time   26.1497: real time   26.3483

 eigenvalue-minimisations  :     0
 total energy-change (2. order) :-0.4421653E+00  (-0.1725949E+00)
 number of electron     216.0000000 magnetization 
 augmentation part       -0.5374692 magnetization 

 Free energy of the ion-electron system (eV)
  ---------------------------------------------------
  alpha Z        PSCENC =        59.93625244
  Ewald energy   TEWEN  =     35411.26856477
  -Hartree energ DENC   =    -42477.45082376
  -exchange      EXHF   =         0.00000000
  -V(xc)+E(xc)   XCENC  =       658.43696717
  PAW double counting   =    156928.30267671  -156786.78649496
  entropy T*S    EENTRO =        -0.00000000
  eigenvalues    EBANDS =     -2685.77823368
  atomic energy  EATOM  =      8369.52358910
  ---------------------------------------------------
  free energy    TOTEN  =      -522.54750222 eV

  energy without entropy =     -522.54750222  energy(sigma->0) =     -522.54750222


--------------------------------------------------------------------------------------------------------




--------------------------------------- Iteration      1(  10)  ---------------------------------------


    POTLOK:  cpu time    1.2449: real time    1.2524
    SETDIJ:  cpu time    0.1936: real time    0.1943
    TRIAL :  cpu time   15.5231: real time   15.6363
    CORREC:  cpu time    6.8628: real time    6.9113
    CHARGE:  cpu time    2.2751: real time    2.2935
    --------------------------------------------
      LOOP:  cpu time   26.1425: real time   26.3329

 eigenvalue-minimisations  :     0
 total energy-change (2. order) :-0.1724490E+00  (-0.7556020E-01)
 number of electron     216.0000000 magnetization 
 augmentation part       -0.5332603 magnetization 

 Free energy of the ion-electron system (eV)
  ---------------------------------------------------
  alpha Z        PSCENC =        59.93625244
  Ewald energy   TEWEN  =     35411.26856477
  -Hartree energ DENC   =    -42474.91597399
  -exchange      EXHF   =         0.00000000
  -V(xc)+E(xc)   XCENC  =       658.35720859
  PAW double counting   =    160537.36172133  -160395.80668077
  entropy T*S    EENTRO =        -0.00000000
  eigenvalues    EBANDS =     -2688.44463264
  atomic energy  EATOM  =      8369.52358910
  ---------------------------------------------------
  free energy    TOTEN  =      -522.71995118 eV

  energy without entropy =     -522.71995118  energy(sigma->0) =     -522.71995118


--------------------------------------------------------------------------------------------------------




--------------------------------------- Iteration      1(  11)  ---------------------------------------


    POTLOK:  cpu time    1.2383: real time    1.2464
    SETDIJ:  cpu time    0.1907: real time    0.1913
    TRIAL :  cpu time   15.4994: real time   15.6258
    CORREC:  cpu time    6.8533: real time    6.9099
    CHARGE:  cpu time    2.2779: real time    2.2972
    --------------------------------------------
      LOOP:  cpu time   26.1424: real time   26.3565

 eigenvalue-minimisations  :     0
 total energy-change (2. order) :-0.7541426E-01  (-0.2918557E-01)
 number of electron     216.0000000 magnetization 
 augmentation part       -0.5304793 magnetization 

 Free energy of the ion-electron system (eV)
  ---------------------------------------------------
  alpha Z        PSCENC =        59.93625244
  Ewald energy   TEWEN  =     35411.26856477
  -Hartree energ DENC   =    -42469.03469851
  -exchange      EXHF   =         0.00000000
  -V(xc)+E(xc)   XCENC  =       658.29524344
  PAW double counting   =    161166.41743305  -161024.88061957
  entropy T*S    EENTRO =        -0.00000000
  eigenvalues    EBANDS =     -2694.32113015
  atomic energy  EATOM  =      8369.52358910
  ---------------------------------------------------
  free energy    TOTEN  =      -522.79536543 eV

  energy without entropy =     -522.79536543  energy(sigma->0) =     -522.79536543


--------------------------------------------------------------------------------------------------------




--------------------------------------- Iteration      1(  12)  ---------------------------------------


    POTLOK:  cpu time    1.2431: real time    1.2519
    SETDIJ:  cpu time    0.1898: real time    0.1904
    TRIAL :  cpu time   15.4927: real time   15.6349
    CORREC:  cpu time    6.8570: real time    6.9161
    CHARGE:  cpu time    2.2795: real time    2.2986
    --------------------------------------------
      LOOP:  cpu time   26.0983: real time   26.3295

 eigenvalue-minimisations  :     0
 total energy-change (2. order) :-0.2913525E-01  (-0.9121117E-02)
 number of electron     216.0000000 magnetization 
 augmentation part       -0.5303676 magnetization 

 Free energy of the ion-electron system (eV)
  ---------------------------------------------------
  alpha Z        PSCENC =        59.93625244
  Ewald energy   TEWEN  =     35411.26856477
  -Hartree energ DENC   =    -42464.87073354
  -exchange      EXHF   =         0.00000000
  -V(xc)+E(xc)   XCENC  =       658.23628781
  PAW double counting   =    160574.93808887  -160433.42601256
  entropy T*S    EENTRO =        -0.00000000
  eigenvalues    EBANDS =     -2698.43053757
  atomic energy  EATOM  =      8369.52358910
  ---------------------------------------------------
  free energy    TOTEN  =      -522.82450069 eV

  energy without entropy =     -522.82450069  energy(sigma->0) =     -522.82450069


--------------------------------------------------------------------------------------------------------




--------------------------------------- Iteration      1(  13)  ---------------------------------------


    POTLOK:  cpu time    1.2380: real time    1.2465
    SETDIJ:  cpu time    0.1938: real time    0.1945
    TRIAL :  cpu time   15.5055: real time   15.6268
    CORREC:  cpu time    6.8626: real time    6.9098
    CHARGE:  cpu time    2.2716: real time    2.2891
    --------------------------------------------
      LOOP:  cpu time   26.1426: real time   26.3429

 eigenvalue-minimisations  :     0
 total energy-change (2. order) :-0.9102944E-02  (-0.2517979E-02)
 number of electron     216.0000000 magnetization 
 augmentation part       -0.5308044 magnetization 

 Free energy of the ion-electron system (eV)
  ---------------------------------------------------
  alpha Z        PSCENC =        59.93625244
  Ewald energy   TEWEN  =     35411.26856477
  -Hartree energ DENC   =    -42463.47270359
  -exchange      EXHF   =         0.00000000
  -V(xc)+E(xc)   XCENC  =       658.18744078
  PAW double counting   =    159918.39342441  -159776.88511666
  entropy T*S    EENTRO =        -0.00000000
  eigenvalues    EBANDS =     -2699.78505487
  atomic energy  EATOM  =      8369.52358910
  ---------------------------------------------------
  free energy    TOTEN  =      -522.83360363 eV

  energy without entropy =     -522.83360363  energy(sigma->0) =     -522.83360363


--------------------------------------------------------------------------------------------------------




--------------------------------------- Iteration      1(  14)  ---------------------------------------


    POTLOK:  cpu time    1.2498: real time    1.2573
    SETDIJ:  cpu time    0.1870: real time    0.1875
    TRIAL :  cpu time   15.5051: real time   15.6248
    CORREC:  cpu time    6.8600: real time    6.9131
    CHARGE:  cpu time    2.2739: real time    2.2929
    --------------------------------------------
      LOOP:  cpu time   26.1224: real time   26.3268

 eigenvalue-minimisations  :     0
 total energy-change (2. order) :-0.2508267E-02  (-0.6794994E-03)
 number of electron     216.0000000 magnetization 
 augmentation part       -0.5310286 magnetization 

 Free energy of the ion-electron system (eV)
  ---------------------------------------------------
  alpha Z        PSCENC =        59.93625244
  Ewald energy   TEWEN  =     35411.26856477
  -Hartree energ DENC   =    -42463.49316465
  -exchange      EXHF   =         0.00000000
  -V(xc)+E(xc)   XCENC  =       658.17423601
  PAW double counting   =    159540.15407418  -159398.64460885
  entropy T*S    EENTRO =        -0.00000000
  eigenvalues    EBANDS =     -2699.75505489
  atomic energy  EATOM  =      8369.52358910
  ---------------------------------------------------
  free energy    TOTEN  =      -522.83611190 eV

  energy without entropy =     -522.83611190  energy(sigma->0) =     -522.83611190


--------------------------------------------------------------------------------------------------------




--------------------------------------- Iteration      1(  15)  ---------------------------------------


    POTLOK:  cpu time    1.2459: real time    1.2548
    SETDIJ:  cpu time    0.1842: real time    0.1849
    TRIAL :  cpu time   15.5017: real time   15.6381
    CORREC:  cpu time    6.8473: real time    6.9073
    CHARGE:  cpu time    2.2721: real time    2.2908
    --------------------------------------------
      LOOP:  cpu time   26.0732: real time   26.3321

 eigenvalue-minimisations  :     0
 total energy-change (2. order) :-0.6753827E-03  (-0.1910893E-03)
 number of electron     216.0000000 magnetization 
 augmentation part       -0.5311876 magnetization 

 Free energy of the ion-electron system (eV)
  ---------------------------------------------------
  alpha Z        PSCENC =        59.93625244
  Ewald energy   TEWEN  =     35411.26856477
  -Hartree energ DENC   =    -42463.46748598
  -exchange      EXHF   =         0.00000000
  -V(xc)+E(xc)   XCENC  =       658.17032258
  PAW double counting   =    159352.20341975  -159210.69326502
  entropy T*S    EENTRO =        -0.00000000
  eigenvalues    EBANDS =     -2699.77818492
  atomic energy  EATOM  =      8369.52358910
  ---------------------------------------------------
  free energy    TOTEN  =      -522.83678728 eV

  energy without entropy =     -522.83678728  energy(sigma->0) =     -522.83678728


--------------------------------------------------------------------------------------------------------




--------------------------------------- Iteration      1(  16)  ---------------------------------------


    POTLOK:  cpu time    1.2403: real time    1.2493
    SETDIJ:  cpu time    0.1927: real time    0.1934
    TRIAL :  cpu time   15.4928: real time   15.6302
    CORREC:  cpu time    6.8580: real time    6.9169
    CHARGE:  cpu time    2.2865: real time    2.3033
    --------------------------------------------
      LOOP:  cpu time   26.1276: real time   26.3615

 eigenvalue-minimisations  :     0
 total energy-change (2. order) :-0.1892759E-03  (-0.5940329E-04)
 number of electron     216.0000000 magnetization 
 augmentation part       -0.5312422 magnetization 

 Free energy of the ion-electron system (eV)
  ---------------------------------------------------
  alpha Z        PSCENC =        59.93625244
  Ewald energy   TEWEN  =     35411.26856477
  -Hartree energ DENC   =    -42463.38501926
  -exchange      EXHF   =         0.00000000
  -V(xc)+E(xc)   XCENC  =       658.16531340
  PAW double counting   =    159246.38816160  -159104.87648636
  entropy T*S    EENTRO =        -0.00000000
  eigenvalues    EBANDS =     -2699.85735224
  atomic energy  EATOM  =      8369.52358910
  ---------------------------------------------------
  free energy    TOTEN  =      -522.83697656 eV

  energy without entropy =     -522.83697656  energy(sigma->0) =     -522.83697656


--------------------------------------------------------------------------------------------------------




--------------------------------------- Iteration      1(  17)  ---------------------------------------


    POTLOK:  cpu time    1.2426: real time    1.2499
    SETDIJ:  cpu time    0.1902: real time    0.1908
    TRIAL :  cpu time   15.5349: real time   15.6441
    CORREC:  cpu time    6.8725: real time    6.9178
    CHARGE:  cpu time    2.2746: real time    2.2935
    --------------------------------------------
      LOOP:  cpu time   26.1423: real time   26.3659

 eigenvalue-minimisations  :     0
 total energy-change (2. order) :-0.5848671E-04  (-0.2152690E-04)
 number of electron     216.0000000 magnetization 
 augmentation part       -0.5312586 magnetization 

 Free energy of the ion-electron system (eV)
  ---------------------------------------------------
  alpha Z        PSCENC =        59.93625244
  Ewald energy   TEWEN  =     35411.26856477
  -Hartree energ DENC   =    -42463.53317102
  -exchange      EXHF   =         0.00000000
  -V(xc)+E(xc)   XCENC  =       658.16994547
  PAW double counting   =    159181.57121554  -159040.05924495
  entropy T*S    EENTRO =        -0.00000000
  eigenvalues    EBANDS =     -2699.71418638
  atomic energy  EATOM  =      8369.52358910
  ---------------------------------------------------
  free energy    TOTEN  =      -522.83703504 eV

  energy without entropy =     -522.83703504  energy(sigma->0) =     -522.83703504


--------------------------------------------------------------------------------------------------------




--------------------------------------- Iteration      1(  18)  ---------------------------------------


    POTLOK:  cpu time    1.2407: real time    1.2480
    SETDIJ:  cpu time    0.1930: real time    0.1936
    TRIAL :  cpu time   15.5111: real time   15.6332
    CORREC:  cpu time    6.8685: real time    6.9172
    CHARGE:  cpu time    2.2768: real time    2.2930
    --------------------------------------------
      LOOP:  cpu time   26.2030: real time   26.4015

 eigenvalue-minimisations  :     0
 total energy-change (2. order) :-0.2161259E-04  (-0.7174149E-05)
 number of electron     216.0000000 magnetization 
 augmentation part       -0.5312723 magnetization 

 Free energy of the ion-electron system (eV)
  ---------------------------------------------------
  alpha Z        PSCENC =        59.93625244
  Ewald energy   TEWEN  =     35411.26856477
  -Hartree energ DENC   =    -42463.60949923
  -exchange      EXHF   =         0.00000000
  -V(xc)+E(xc)   XCENC  =       658.17221094
  PAW double counting   =    159153.15427346  -159011.64207412
  entropy T*S    EENTRO =        -0.00000000
  eigenvalues    EBANDS =     -2699.64037401
  atomic energy  EATOM  =      8369.52358910
  ---------------------------------------------------
  free energy    TOTEN  =      -522.83705666 eV

  energy without entropy =     -522.83705666  energy(sigma->0) =     -522.83705666


--------------------------------------------------------------------------------------------------------




--------------------------------------- Iteration      1(  19)  ---------------------------------------


    POTLOK:  cpu time    1.2430: real time    1.2541
    SETDIJ:  cpu time    0.1863: real time    0.1871
    TRIAL :  cpu time   15.5069: real time   15.6240
    CORREC:  cpu time    6.8645: real time    6.9121
    CHARGE:  cpu time    2.2958: real time    2.3123
    --------------------------------------------
      LOOP:  cpu time   26.1554: real time   26.3757

 eigenvalue-minimisations  :     0
 total energy-change (2. order) :-0.7410446E-05  (-0.2387024E-05)
 number of electron     216.0000000 magnetization 
 augmentation part       -0.5312729 magnetization 

 Free energy of the ion-electron system (eV)
  ---------------------------------------------------
  alpha Z        PSCENC =        59.93625244
  Ewald energy   TEWEN  =     35411.26856477
  -Hartree energ DENC   =    -42463.61134126
  -exchange      EXHF   =         0.00000000
  -V(xc)+E(xc)   XCENC  =       658.17193413
  PAW double counting   =    159152.01432790  -159010.50187945
  entropy T*S    EENTRO =        -0.00000000
  eigenvalues    EBANDS =     -2699.63851170
  atomic energy  EATOM  =      8369.52358910
  ---------------------------------------------------
  free energy    TOTEN  =      -522.83706407 eV

  energy without entropy =     -522.83706407  energy(sigma->0) =     -522.83706407


--------------------------------------------------------------------------------------------------------




--------------------------------------- Iteration      1(  20)  ---------------------------------------


    POTLOK:  cpu time    1.2405: real time    1.2479
    SETDIJ:  cpu time    0.1914: real time    0.1921
    TRIAL :  cpu time   15.5076: real time   15.6317
    CORREC:  cpu time    6.8610: real time    6.9094
    CHARGE:  cpu time    2.2860: real time    2.3024
    --------------------------------------------
      LOOP:  cpu time   26.1807: real time   26.3822

 eigenvalue-minimisations  :     0
 total energy-change (2. order) :-0.2469576E-05  (-0.7376464E-06)
 number of electron     216.0000000 magnetization 
 augmentation part       -0.5312714 magnetization 

 Free energy of the ion-electron system (eV)
  ---------------------------------------------------
  alpha Z        PSCENC =        59.93625244
  Ewald energy   TEWEN  =     35411.26856477
  -Hartree energ DENC   =    -42463.62905764
  -exchange      EXHF   =         0.00000000
  -V(xc)+E(xc)   XCENC  =       658.17255313
  PAW double counting   =    159158.92644523  -159017.41401500
  entropy T*S    EENTRO =        -0.00000000
  eigenvalues    EBANDS =     -2699.62139857
  atomic energy  EATOM  =      8369.52358910
  ---------------------------------------------------
  free energy    TOTEN  =      -522.83706654 eV

  energy without entropy =     -522.83706654  energy(sigma->0) =     -522.83706654


--------------------------------------------------------------------------------------------------------




--------------------------------------- Iteration      1(  21)  ---------------------------------------


    POTLOK:  cpu time    1.2457: real time    1.2528
    SETDIJ:  cpu time    0.1872: real time    0.1878
    TRIAL :  cpu time   15.4854: real time   15.6194
    CORREC:  cpu time    6.8607: real time    6.9169
    CHARGE:  cpu time    2.2786: real time    2.2947
    --------------------------------------------
      LOOP:  cpu time   26.1435: real time   26.3582

 eigenvalue-minimisations  :     0
 total energy-change (2. order) :-0.7470371E-06  (-0.2579983E-06)
 number of electron     216.0000000 magnetization 
 augmentation part       -0.5312679 magnetization 

 Free energy of the ion-electron system (eV)
  ---------------------------------------------------
  alpha Z        PSCENC =        59.93625244
  Ewald energy   TEWEN  =     35411.26856477
  -Hartree energ DENC   =    -42463.63691020
  -exchange      EXHF   =         0.00000000
  -V(xc)+E(xc)   XCENC  =       658.17277980
  PAW double counting   =    159165.11311281  -159023.60070970
  entropy T*S    EENTRO =        -0.00000000
  eigenvalues    EBANDS =     -2699.61374631
  atomic energy  EATOM  =      8369.52358910
  ---------------------------------------------------
  free energy    TOTEN  =      -522.83706728 eV

  energy without entropy =     -522.83706728  energy(sigma->0) =     -522.83706728


--------------------------------------------------------------------------------------------------------




--------------------------------------- Iteration      1(  22)  ---------------------------------------


    POTLOK:  cpu time    1.2499: real time    1.2572
    SETDIJ:  cpu time    0.1856: real time    0.1861
    TRIAL :  cpu time   15.5263: real time   15.6407
    CORREC:  cpu time    6.8672: real time    6.9190
    CHARGE:  cpu time    2.2805: real time    2.2968
    --------------------------------------------
      LOOP:  cpu time   26.2132: real time   26.4287

 eigenvalue-minimisations  :     0
 total energy-change (2. order) :-0.2495944E-06  (-0.1177519E-06)
 number of electron     216.0000000 magnetization 
 augmentation part       -0.5312628 magnetization 

 Free energy of the ion-electron system (eV)
  ---------------------------------------------------
  alpha Z        PSCENC =        59.93625244
  Ewald energy   TEWEN  =     35411.26856477
  -Hartree energ DENC   =    -42463.63554814
  -exchange      EXHF   =         0.00000000
  -V(xc)+E(xc)   XCENC  =       658.17269434
  PAW double counting   =    159169.18016952  -159027.66779096
  entropy T*S    EENTRO =        -0.00000000
  eigenvalues    EBANDS =     -2699.61499860
  atomic energy  EATOM  =      8369.52358910
  ---------------------------------------------------
  free energy    TOTEN  =      -522.83706753 eV

  energy without entropy =     -522.83706753  energy(sigma->0) =     -522.83706753


--------------------------------------------------------------------------------------------------------




--------------------------------------- Iteration      1(  23)  ---------------------------------------


    POTLOK:  cpu time    1.2430: real time    1.2510
    SETDIJ:  cpu time    0.1940: real time    0.1946
    TRIAL :  cpu time   15.5226: real time   15.6647
    CORREC:  cpu time    6.8607: real time    6.9123
    EDDIAG:  cpu time    3.1968: real time    3.2226
    CHARGE:  cpu time    2.2766: real time    2.2937
    --------------------------------------------
      LOOP:  cpu time   29.3162: real time   29.5708

 eigenvalue-minimisations  :     0
 total energy-change (2. order) :-0.9810901E-07  (-0.9347059E-07)
 number of electron     216.0000000 magnetization 
 augmentation part       -0.5312588 magnetization 

 Free energy of the ion-electron system (eV)
  ---------------------------------------------------
  alpha Z        PSCENC =        59.93625244
  Ewald energy   TEWEN  =     35411.26856477
  -Hartree energ DENC   =    -42463.63426095
  -exchange      EXHF   =         0.00000000
  -V(xc)+E(xc)   XCENC  =       658.17267736
  PAW double counting   =    159171.69638970  -159030.18405404
  entropy T*S    EENTRO =        -0.00000000
  eigenvalues    EBANDS =     -2699.61622600
  atomic energy  EATOM  =      8369.52358910
  ---------------------------------------------------
  free energy    TOTEN  =      -522.83706763 eV

  energy without entropy =     -522.83706763  energy(sigma->0) =     -522.83706763


--------------------------------------------------------------------------------------------------------


  average scaling for gradient   0.9685


 average (electrostatic) potential at core
  the test charge radii are     0.5770  0.5955
  (the norm of the test charge is              1.0000)
       1 -87.6501       2 -87.6410       3 -87.6595       4 -87.6625       5 -87.6378
       6 -87.6319       7 -87.6400       8 -87.6046       9 -87.6304      10 -87.6212
      11 -87.6378      12 -87.6466      13 -87.6215      14 -87.6249      15 -87.6379
      16 -87.6331      17 -87.6404      18 -87.6404      19 -87.6477      20 -87.6418
      21 -87.6200      22 -87.6279      23 -87.6611      24 -87.6452      25 -87.6367
      26 -87.6392      27 -87.6295      28 -87.6535      29 -87.6310      30 -87.6368
      31 -87.6679      32 -87.6487      33 -87.6516      34 -87.6402      35 -87.6355
      36 -87.6408      37 -87.6422      38 -87.6457      39 -87.6455      40 -87.6405
      41 -87.6430      42 -87.6480      43 -87.6398      44 -87.6486      45 -87.6348
      46 -87.6333      47 -87.6472      48 -87.6417      49 -87.6440      50 -87.6430
      51 -91.4266      52-123.7611      53-123.7760
 
 
 
 E-fermi :  -4.0068     XC(G=0):  -2.2912     alpha+bet : -2.1113

 Fermi energy:        -4.0067694321

 k-point     1 :       0.0000    0.0000    0.0000
  band No.  band energies     occupation 
      1     -28.7454      2.00000
      2     -27.6241      2.00000
      3     -23.3510      2.00000
      4     -22.3826      2.00000
      5     -22.3630      2.00000
      6     -22.3544      2.00000
      7     -22.3523      2.00000
      8     -22.3499      2.00000
      9     -22.3439      2.00000
     10     -20.4308      2.00000
     11     -20.4196      2.00000
     12     -20.4078      2.00000
     13     -20.4074      2.00000
     14     -20.4038      2.00000
     15     -20.4032      2.00000
     16     -19.4835      2.00000
     17     -19.4741      2.00000
     18     -19.4679      2.00000
     19     -19.4659      2.00000
     20     -19.4629      2.00000
     21     -19.4617      2.00000
     22     -17.2438      2.00000
     23     -17.2374      2.00000
     24     -17.2292      2.00000
     25     -17.2255      2.00000
     26     -17.2202      2.00000
     27     -17.2189      2.00000
     28     -16.0723      2.00000
     29     -16.0669      2.00000
     30     -16.0595      2.00000
     31     -16.0576      2.00000
     32     -16.0548      2.00000
     33     -16.0532      2.00000
     34     -14.6630      2.00000
     35     -14.6575      2.00000
     36     -14.6550      2.00000
     37     -14.6523      2.00000
     38     -14.6499      2.00000
     39     -14.6492      2.00000
     40     -12.8739      2.00000
     41     -12.1742      2.00000
     42     -12.1695      2.00000
     43     -12.1593      2.00000
     44     -12.1577      2.00000
     45     -12.1564      2.00000
     46     -12.1508      2.00000
     47     -11.9722      2.00000
     48     -11.9599      2.00000
     49     -11.9551      2.00000
     50     -11.9534      2.00000
     51     -11.9472      2.00000
     52     -11.9456      2.00000
     53     -11.6640      2.00000
     54     -11.5286      2.00000
     55     -11.3210      2.00000
     56     -10.5333      2.00000
     57     -10.4921      2.00000
     58     -10.4904      2.00000
     59     -10.4885      2.00000
     60     -10.4873      2.00000
     61     -10.4860      2.00000
     62     -10.4845      2.00000
     63      -9.4677      2.00000
     64      -9.4612      2.00000
     65      -9.4597      2.00000
     66      -9.4566      2.00000
     67      -9.4493      2.00000
     68      -9.1900      2.00000
     69      -9.1678      2.00000
     70      -9.1633      2.00000
     71      -9.1573      2.00000
     72      -9.1554      2.00000
     73      -9.1549      2.00000
     74      -9.1532      2.00000
     75      -9.1524      2.00000
     76      -9.1500      2.00000
     77      -9.1484      2.00000
     78      -9.1476      2.00000
     79      -9.1463      2.00000
     80      -9.1387      2.00000
     81      -7.9136      2.00000
     82      -7.7156      2.00000
     83      -7.4180      2.00000
     84      -7.4142      2.00000
     85      -7.4132      2.00000
     86      -7.4075      2.00000
     87      -7.4070      2.00000
     88      -7.4057      2.00000
     89      -7.2234      2.00000
     90      -7.2093      2.00000
     91      -7.2063      2.00000
     92      -7.1718      2.00000
     93      -7.1474      2.00000
     94      -6.9681      2.00000
     95      -6.2789      2.00000
     96      -6.2742      2.00000
     97      -6.2667      2.00000
     98      -6.2506      2.00000
     99      -6.2282      2.00000
    100      -6.0984      2.00000
    101      -5.8413      2.00000
    102      -5.8384      2.00000
    103      -4.1936      2.00000
    104      -4.1838      2.00000
    105      -4.1670      2.00000
    106      -4.1648      2.00000
    107      -4.1642      2.00000
    108      -4.1451      2.00000
    109      -1.2314      0.00000
    110      -1.2149      0.00000
    111      -1.1819      0.00000
    112      -1.1765      0.00000
    113      -1.1726      0.00000
    114      -1.1538      0.00000
    115       0.7161      0.00000
    116       0.7612      0.00000
    117       0.7960      0.00000
    118       0.8096      0.00000
    119       0.8185      0.00000
    120       0.8327      0.00000
    121       1.0280      0.00000
    122       1.5776      0.00000
    123       1.6735      0.00000
    124       1.7304      0.00000
    125       1.9638      0.00000
    126       2.1551      0.00000
    127       2.3711      0.00000
    128       2.3926      0.00000
    129       2.3933      0.00000
    130       2.4017      0.00000
    131       2.5188      0.00000
    132       2.6513      0.00000
    133       2.6675      0.00000
    134       2.6826      0.00000
    135       2.6843      0.00000
    136       2.7099      0.00000
    137       2.7808      0.00000
    138       2.9383      0.00000
    139       2.9995      0.00000
    140       3.0633      0.00000
    141       3.1270      0.00000
    142       3.1324      0.00000
    143       3.1345      0.00000
    144       3.1688      0.00000
    145       3.2917      0.00000
    146       3.3035      0.00000
    147       3.3163      0.00000
    148       3.3297      0.00000
    149       3.3915      0.00000
    150       3.4174      0.00000
    151       3.8508      0.00000
    152       4.5392      0.00000
    153       4.7072      0.00000
    154       4.8069      0.00000
    155       4.9546      0.00000
    156       5.0817      0.00000
    157       5.1832      0.00000
    158       5.1912      0.00000
    159       5.1988      0.00000
    160       5.2072      0.00000
    161       5.2092      0.00000
    162       5.2110      0.00000
    163       5.2176      0.00000
    164       5.3486      0.00000
    165       5.4665      0.00000
    166       5.5008      0.00000
    167       5.5932      0.00000
    168       5.6909      0.00000


--------------------------------------------------------------------------------------------------------


 soft charge-density along one line, spin component           1
         0         1         2         3         4         5         6         7         8         9
 total charge-density along one line
 
 pseudopotential strength for first ion, spin component:           1
 12.626  21.245  -0.000   0.000   0.000  -0.000   0.000   0.000
 21.245  35.747  -0.000   0.000   0.000  -0.000   0.000   0.000
 -0.000  -0.000  -3.230  -0.000   0.000  -5.785  -0.000   0.000
  0.000   0.000  -0.000  -3.230  -0.000  -0.000  -5.784  -0.000
  0.000   0.000   0.000  -0.000  -3.230   0.000  -0.000  -5.785
 -0.000  -0.000  -5.785  -0.000   0.000 -10.337   0.000   0.000
  0.000   0.000  -0.000  -5.784  -0.000   0.000 -10.336  -0.000
  0.000   0.000   0.000  -0.000  -5.785   0.000  -0.000 -10.337
 total augmentation occupancy for first ion, spin component:           1
 10.262  -3.893  -0.001  -0.001   0.001   0.000   0.001  -0.000
 -3.893   1.506   0.000   0.000  -0.000  -0.000  -0.000   0.000
 -0.001   0.000   8.467  -0.009   0.000  -3.024   0.003  -0.000
 -0.001   0.000  -0.009   4.013  -0.000   0.003  -1.207   0.000
  0.001  -0.000   0.000  -0.000   8.467  -0.000   0.000  -3.024
  0.000  -0.000  -3.024   0.003  -0.000   1.092  -0.001   0.000
  0.001  -0.000   0.003  -1.207   0.000  -0.001   0.368   0.000
 -0.000   0.000  -0.000   0.000  -3.024   0.000   0.000   1.092


------------------------ aborting loop because EDIFF is reached ----------------------------------------


    FORLOC:  cpu time    0.1043: real time    0.1050
    FORNL :  cpu time    2.8774: real time    2.9018
    FORCOR:  cpu time    1.2573: real time    1.2644
    OFIELD:  cpu time    0.0024: real time    0.0024

 VOLUME and BASIS-vectors are now :
 -----------------------------------------------------------------------------
  energy-cutoff  :     1000.00
  volume of cell :     2631.08
      direct lattice vectors                 reciprocal lattice vectors
    12.325000000  0.000000000  0.000000000     0.081135903  0.046843835  0.000000000
    -6.162500000 10.673763102  0.000000000     0.000000000  0.093687670  0.000000000
     0.000000000  0.000000000 20.000000000     0.000000000  0.000000000  0.050000000

  length of vectors
    12.325000000 12.325000000 20.000000000     0.093687670  0.093687670  0.050000000


 FORCES acting on ions:
    Electron-Ion                     Ewald-Force                    Non-Local-Force
 -----------------------------------------------------------------------------------------------
   0.147E+02 0.130E+02 0.216E+02   -.147E+02 -.130E+02 -.217E+02   0.131E-01 -.117E-01 0.197E-01
   0.257E+02 0.130E+02 0.311E+02   -.257E+02 -.129E+02 -.311E+02   0.323E-01 -.153E-01 -.213E-02
   0.137E+02 0.341E+02 0.417E+02   -.137E+02 -.342E+02 -.417E+02   0.275E-02 0.794E-01 0.729E-01
   0.247E+02 0.365E+02 0.801E+02   -.249E+02 -.366E+02 -.803E+02   0.143E+00 0.619E-01 0.794E-01
   0.162E+02 0.388E+01 0.217E+02   -.162E+02 -.385E+01 -.217E+02   -.803E-03 -.251E-01 -.326E-02
   0.172E+02 -.279E+01 0.224E+02   -.172E+02 0.280E+01 -.224E+02   -.385E-01 -.102E-01 -.823E-02
   0.398E+02 0.176E+02 0.652E+02   -.400E+02 -.175E+02 -.651E+02   0.607E-01 -.136E+00 -.132E+00
   0.409E+02 -.131E+02 0.727E+02   -.408E+02 0.132E+02 -.725E+02   -.844E-01 -.289E-01 -.456E+00
   -.148E+02 0.327E+02 0.445E+02   0.148E+02 -.326E+02 -.445E+02   -.267E-01 0.205E-03 -.853E-01
   -.307E+02 0.267E+02 0.809E+02   0.308E+02 -.267E+02 -.807E+02   -.563E-01 0.509E-02 -.548E+00
   0.387E+01 -.330E+01 0.163E+02   -.384E+01 0.327E+01 -.162E+02   -.112E-01 0.797E-02 -.705E-02
   0.299E+01 -.240E+01 0.148E+02   -.299E+01 0.240E+01 -.148E+02   -.198E-01 0.812E-02 0.217E-02
   0.146E+02 -.393E+02 0.872E+02   -.148E+02 0.394E+02 -.871E+02   0.154E+00 0.848E-01 -.586E+00
   0.600E+01 -.351E+02 0.428E+02   -.605E+01 0.351E+02 -.428E+02   0.372E-01 -.273E-01 -.577E-01
   -.146E+02 0.923E+01 0.214E+02   0.146E+02 -.922E+01 -.214E+02   0.250E-01 -.140E-01 -.416E-02
   -.225E+02 0.619E+01 0.267E+02   0.225E+02 -.619E+01 -.267E+02   0.527E-02 0.439E-02 -.238E-01
   -.201E+01 -.837E+00 0.140E+02   0.202E+01 0.833E+00 -.140E+02   -.102E-02 -.828E-02 0.227E-02
   0.117E+01 0.758E+01 0.153E+02   -.117E+01 -.757E+01 -.153E+02   -.116E-01 0.576E-02 0.857E-02
   -.475E+01 -.266E+02 0.290E+02   0.473E+01 0.266E+02 -.291E+02   0.484E-01 0.421E-02 0.337E-01
   -.183E+01 -.119E+02 0.175E+02   0.183E+01 0.119E+02 -.175E+02   -.707E-03 -.524E-02 -.132E-02
   0.278E+02 -.120E+02 0.350E+02   -.277E+02 0.119E+02 -.350E+02   -.576E-02 -.881E-02 -.502E-01
   0.154E+02 -.134E+02 0.247E+02   -.153E+02 0.134E+02 -.247E+02   -.218E-01 0.341E-01 -.625E-02
   -.708E+01 0.189E+02 0.117E+03   0.730E+01 -.191E+02 -.117E+03   -.250E+00 0.153E+00 -.423E+00
   -.161E+02 -.304E+02 0.106E+03   0.160E+02 0.306E+02 -.106E+03   0.179E+00 -.156E+00 -.293E+00
   0.665E+01 -.303E+01 0.164E+02   -.661E+01 0.302E+01 -.164E+02   -.207E-01 0.520E-02 -.973E-02
   0.114E+01 0.601E+01 0.167E+02   -.113E+01 -.601E+01 -.167E+02   -.150E-01 0.599E-02 -.235E-02
   -.385E+02 0.378E+01 0.516E+02   0.385E+02 -.387E+01 -.515E+02   0.902E-02 0.397E-01 -.130E+00
   -.335E+02 -.150E+02 0.435E+02   0.335E+02 0.149E+02 -.435E+02   -.585E-01 0.564E-01 0.444E-01
   0.939E+01 -.195E+02 0.263E+02   -.941E+01 0.195E+02 -.263E+02   0.483E-02 0.238E-01 -.127E-01
   0.865E+00 -.673E+01 0.179E+02   -.891E+00 0.670E+01 -.178E+02   0.981E-02 0.174E-01 -.103E-01
   -.287E+02 -.316E+02 0.577E+02   0.288E+02 0.316E+02 -.578E+02   -.104E+00 -.743E-01 0.140E+00
   -.146E+02 -.264E+02 0.319E+02   0.146E+02 0.265E+02 -.319E+02   -.414E-02 -.465E-01 0.375E-01
   0.738E+00 0.310E+01 0.147E+02   -.735E+00 -.310E+01 -.147E+02   0.114E-01 -.121E-01 0.396E-02
   0.218E+01 0.318E+01 0.162E+02   -.219E+01 -.314E+01 -.162E+02   0.122E-02 -.143E-01 -.692E-02
   -.100E+02 0.113E+01 0.185E+02   0.100E+02 -.114E+01 -.185E+02   0.158E-01 0.134E-02 -.412E-02
   -.850E+01 -.334E+01 0.177E+02   0.851E+01 0.334E+01 -.177E+02   -.129E-01 0.116E-01 -.574E-02
   -.178E+02 -.933E+01 0.225E+02   0.178E+02 0.932E+01 -.225E+02   -.230E-01 0.155E-02 -.144E-02
   -.978E+01 -.799E+01 0.174E+02   0.979E+01 0.799E+01 -.174E+02   -.125E-01 0.320E-02 0.110E-01
   -.931E+01 -.122E+02 0.191E+02   0.932E+01 0.122E+02 -.191E+02   -.132E-01 -.156E-01 0.537E-02
   -.135E+01 -.281E+01 0.152E+02   0.134E+01 0.282E+01 -.152E+02   -.243E-02 -.135E-02 0.738E-02
   0.349E+01 0.821E+01 0.162E+02   -.348E+01 -.823E+01 -.162E+02   -.161E-02 0.156E-01 0.723E-02
   0.121E+02 0.189E+02 0.237E+02   -.121E+02 -.189E+02 -.237E+02   0.188E-01 0.257E-01 0.146E-01
   0.939E+00 0.151E+02 0.190E+02   -.931E+00 -.151E+02 -.190E+02   -.654E-02 0.143E-01 -.174E-02
   0.510E+00 0.311E+02 0.339E+02   -.477E+00 -.311E+02 -.340E+02   -.591E-01 0.129E-01 0.374E-01
   -.287E+01 0.577E+01 0.179E+02   0.288E+01 -.576E+01 -.179E+02   0.221E-02 -.920E-02 -.822E-02
   -.127E+02 0.164E+02 0.250E+02   0.127E+02 -.164E+02 -.250E+02   0.270E-03 -.445E-02 -.176E-01
   -.193E+01 -.555E+01 0.160E+02   0.192E+01 0.555E+01 -.160E+02   0.177E-01 0.429E-02 0.107E-02
   -.522E+01 0.217E+01 0.152E+02   0.520E+01 -.217E+01 -.152E+02   0.160E-01 -.312E-02 -.805E-02
   0.376E+00 -.344E+01 0.149E+02   -.362E+00 0.342E+01 -.149E+02   0.740E-02 -.180E-02 0.408E-02
   0.543E+01 0.401E+01 0.151E+02   -.543E+01 -.401E+01 -.151E+02   0.376E-03 0.123E-01 0.417E-02
   0.551E+00 -.272E+00 -.411E+03   -.545E+00 0.257E+00 0.412E+03   -.537E-01 0.215E-01 -.135E+00
   -.229E+03 0.155E+03 -.630E+03   0.279E+03 -.189E+03 0.633E+03   -.517E+02 0.354E+02 -.165E+01
   0.229E+03 -.155E+03 -.609E+03   -.279E+03 0.189E+03 0.605E+03   0.517E+02 -.355E+02 0.482E+01
 -----------------------------------------------------------------------------------------------
   0.784E-01 0.472E-01 -.657E+00   0.114E-12 0.000E+00 0.227E-12   -.785E-01 -.475E-01 0.667E+00
 
 
 POSITION                                       TOTAL-FORCE (eV/Angst)
 -----------------------------------------------------------------------------------
     11.98348      0.00342      0.01417        -0.001438     -0.009556     -0.001114
     -0.34154      1.42665      0.01100         0.026755      0.019686     -0.000579
      2.12355      0.00315      0.01249         0.011737     -0.031287      0.014290
      2.12326      1.42653      0.00641        -0.010658      0.006709     -0.106908
     10.75099      2.13819      0.01213        -0.005182     -0.001469      0.003373
     -1.57382      3.56123      0.01110        -0.013476      0.007194      0.003116
      0.89078      2.13854      0.00548        -0.050904      0.010332     -0.089626
      0.89099      3.56147      0.00181        -0.065680      0.049314     -0.243132
      4.58864      0.00346      0.01135         0.017942      0.086246     -0.020446
      4.58894      1.42623      0.00646         0.077444     -0.070208     -0.333364
      9.51854      4.27281      0.01369         0.011105     -0.022111     -0.000169
     -2.80632      5.69591      0.01434        -0.024374      0.014081      0.000740
      2.12300      4.27302      0.00000        -0.042439      0.145571     -0.409466
      2.12335      5.69594      0.00581        -0.012128     -0.105549     -0.019032
      7.05344      0.00333      0.01399         0.001907     -0.001135      0.003965
      7.05353      1.42635      0.01368        -0.007217      0.007280      0.001818
      8.28610      6.40752      0.01601         0.009016     -0.012163     -0.000631
     -4.03885      7.83070      0.01636        -0.014670      0.014525     -0.000679
      3.35586      6.40753      0.01007         0.029121      0.013162      0.007579
      3.35599      7.83072      0.01320        -0.003160     -0.012568      0.000184
     -0.34146      4.27290      0.00723         0.058295     -0.035314     -0.005535
     -0.34138      5.69591      0.00946        -0.008218      0.016407      0.008278
      3.35624      2.13791      0.00222        -0.023369     -0.034895     -0.670412
      3.35573      3.56155      0.00139         0.060280      0.074764     -0.458003
     -1.57395      6.40758      0.01311         0.023109      0.001023     -0.001521
     -1.57385      7.83068      0.01438        -0.005809      0.002737     -0.000553
      5.82093      2.13784      0.01033        -0.046793     -0.048744     -0.045119
      5.82114      3.56097      0.01156         0.006705      0.003980      0.013882
      0.89092      6.40755      0.00907        -0.009759      0.003986      0.008034
      0.89106      7.83068      0.01235        -0.016503     -0.008907     -0.000614
      4.58871      4.27293      0.00850        -0.009340     -0.029005      0.000933
      4.58852      5.69606      0.01149        -0.003806      0.035875      0.005468
      9.51845      0.00337      0.01490         0.013867     -0.012500     -0.000006
      9.51855      1.42644      0.01438        -0.004723      0.021309     -0.001090
      8.28593      2.13803      0.01453         0.001843     -0.013331      0.000635
      8.28613      3.56115      0.01464        -0.003527      0.003461     -0.000391
      7.05356      4.27269      0.01457        -0.005003     -0.005292      0.000813
      7.05362      5.69588      0.01553        -0.003483      0.005013     -0.001141
      5.82112      6.40755      0.01489        -0.002475     -0.006223     -0.002347
      5.82102      7.83073      0.01579        -0.014205      0.010862     -0.000706
      7.05363      8.54227      0.01631         0.011748     -0.007499      0.000049
     -5.27149      9.96549      0.01495        -0.001419      0.002198     -0.003966
     -2.80638      8.54234      0.01558         0.001064      0.007653     -0.000947
     -2.80627      9.96553      0.01362        -0.025768     -0.010015      0.011782
     -0.34149      8.54239      0.01378         0.008822      0.003251      0.000009
     -0.34138      9.96550      0.01354        -0.005127      0.003415      0.004571
      2.12343      8.54232      0.01336         0.010250      0.003096      0.000422
      2.12354      9.96544      0.01469        -0.010475     -0.000831     -0.002831
      4.58846      8.54235      0.01505         0.021932     -0.015235      0.000838
      4.58853      9.96550      0.01517        -0.000637      0.013631      0.000603
      3.04930      2.68154      2.50000        -0.047615      0.006458      0.505187
      4.02070      2.02068      2.56442        -1.360436      1.004700      0.746960
      2.07767      3.34267      2.44055         1.456874     -1.104081      1.076801
 -----------------------------------------------------------------------------------
    total drift:                               -0.000082     -0.000245      0.010538


--------------------------------------------------------------------------------------------------------



  FREE ENERGIE OF THE ION-ELECTRON SYSTEM (eV)
  ---------------------------------------------------
  free  energy   TOTEN  =      -522.83706763 eV

  energy  without entropy=     -522.83706763  energy(sigma->0) =     -522.83706763
 


--------------------------------------------------------------------------------------------------------


    POTLOK:  cpu time    1.4326: real time    1.4403


--------------------------------------------------------------------------------------------------------


 writing wavefunctions
     LOOP+:  cpu time  640.8583: real time  645.9816
    4ORBIT:  cpu time    0.0000: real time    0.0000

 total amount of memory used by VASP MPI-rank0   556209. kBytes
=======================================================================

   base      :      30000. kBytes
   nonl-proj :     184518. kBytes
   fftplans  :      31725. kBytes
   grid      :     282516. kBytes
   one-center:        162. kBytes
   wavefun   :      27288. kBytes
 
  
  
 General timing and accounting informations for this job:
 ========================================================
  
                  Total CPU time used (sec):      673.908
                            User time (sec):      654.766
                          System time (sec):       19.142
                         Elapsed time (sec):      681.323
  
                   Maximum memory used (kb):     1026112.
                   Average memory used (kb):          N/A
  
                          Minor page faults:       136784
                          Major page faults:          478
                 Voluntary context switches:         4526
