 vasp.6.2.1 16May21 (build Nov 06 2021 14:46:37) complex                        
  
 executed on             LinuxIFC date 2025.03.03  18:34:11
 running on  112 total cores
 distrk:  each k-point on  112 cores,    1 groups
 distr:  one band on NCORE=  28 cores,    4 groups


--------------------------------------------------------------------------------------------------------


 INCAR:
   NPAR = 4
   ALGO = Conjugate
   ISMEAR = 0
   SIGMA = 0.01
   PREC = Accurate
   EDIFF = 1E-7
   ENCUT = 1000
   ISIF = 0
   GGA = ML
   LUSE_VDW = .TRUE.
   ZAB_VDW = -1.8867
   AGGAC = 0.0000
   LASPH = .TRUE.
   SYMPREC = 1E-7
   LWAVE = .FALSE.
   LCHARGE = .FALSE.

 POTCAR:    PAW_PBE C_h 06Feb2004                 
 POTCAR:    PAW_PBE O_h 06Feb2004                 
 -----------------------------------------------------------------------------
|                                                                             |
|           W    W    AA    RRRRR   N    N  II  N    N   GGGG   !!!           |
|           W    W   A  A   R    R  NN   N  II  NN   N  G    G  !!!           |
|           W    W  A    A  R    R  N N  N  II  N N  N  G       !!!           |
|           W WW W  AAAAAA  RRRRR   N  N N  II  N  N N  G  GGG   !            |
|           WW  WW  A    A  R   R   N   NN  II  N   NN  G    G                |
|           W    W  A    A  R    R  N    N  II  N    N   GGGG   !!!           |
|                                                                             |
|     For optimal performance we recommend to set                             |
|       NCORE = 2 up to number-of-cores-per-socket                            |
|     NCORE specifies how many cores store one orbital (NPAR=cpu/NCORE).      |
|     This setting can greatly improve the performance of VASP for DFT.       |
|     The default, NCORE=1 might be grossly inefficient on modern             |
|     multi-core architectures or massively parallel machines. Do your        |
|     own testing! More info at https://www.vasp.at/wiki/index.php/NCORE      |
|     Unfortunately you need to use the default for GW and RPA                |
|     calculations (for HF NCORE is supported but not extensively tested      |
|     yet).                                                                   |
|                                                                             |
 -----------------------------------------------------------------------------

 -----------------------------------------------------------------------------
|                                                                             |
|               ----> ADVICE to this user running VASP <----                  |
|                                                                             |
|     You have switched on vdW-DFT.                                           |
|     This routine was written and supplied by Jiri Klimes. We recommend      |
|     that you carefully read and cite the following publications:            |
|       J. Klimes, D.R. Bowler, A. Michelides                                 |
|          J. Phys.: Cond Matt. 22 022201 (2010)                              |
|       J. Klimes, D.R. Bowler, A. Michelides                                 |
|          Phys. Rev. B. 83, 195131 (2011)                                    |
|     and references therein.                                                 |
|                                                                             |
 -----------------------------------------------------------------------------

 POTCAR:    PAW_PBE C_h 06Feb2004                 
   VRHFIN =C: s2p2                                                                                  
   LEXCH  = PE                                                                                      
   EATOM  =   147.1560 eV,   10.8157 Ry                                                             
                                                                                                    
   TITEL  = PAW_PBE C_h 06Feb2004                                                                   
   LULTRA =        F    use ultrasoft PP ?                                                          
   IUNSCR =        1    unscreen: 0-lin 1-nonlin 2-no                                               
   RPACOR =    0.800    partial core radius                                                         
   POMASS =   12.011; ZVAL   =    4.000    mass and valenz                                          
   RCORE  =    1.100    outmost cutoff radius                                                       
   RWIGS  =    1.630; RWIGS  =    0.863    wigner-seitz radius (au A)                               
   ENMAX  =  700.000; ENMIN  =  500.000 eV                                                          
   ICORE  =        2    local potential                                                             
   LCOR   =        T    correct aug charges                                                         
   LPAW   =        T    paw PP                                                                      
   EAUG   =  946.768                                                                                
   DEXC   =    0.000                                                                                
   RMAX   =    1.128    core radius for proj-oper                                                   
   RAUG   =    1.300    factor for augmentation sphere                                              
   RDEP   =    1.162    radius for radial grids                                                     
   RDEPT  =    1.088    core radius for aug-charge                                                  
                                                                                                    
   Atomic configuration                                                                             
    4 entries                                                                                       
     n  l   j            E        occ.                                                              
     1  0  0.50      -273.3789   2.0000                                                             
     2  0  0.50       -13.7508   2.0000                                                             
     2  1  0.50        -5.2854   2.0000                                                             
     3  2  1.50        -5.4423   0.0000                                                             
   Description                                                                                      
     l       E           TYP  RCUT    TYP  RCUT                                                     
     0    -13.7508458     23  1.100                                                                 
     0     -8.2022199     23  1.100                                                                 
     1     -5.2854383     23  1.100                                                                 
     1      1.1560700     23  1.100                                                                 
     2     -5.4423304      7  1.100                                                                 
  local pseudopotential read in
  partial core-charges read in
  partial kinetic energy density read in
  atomic valenz-charges read in
  non local Contribution for L=           0  read in
    real space projection operators read in
  non local Contribution for L=           0  read in
    real space projection operators read in
  non local Contribution for L=           1  read in
    real space projection operators read in
  non local Contribution for L=           1  read in
    real space projection operators read in
    PAW grid and wavefunctions read in
 
   number of l-projection  operators is LMAX  =           4
   number of lm-projection operators is LMMAX =           8
 
 POTCAR:    PAW_PBE O_h 06Feb2004                 
   VRHFIN =O: s2p4                                                                                  
   LEXCH  = PE                                                                                      
   EATOM  =   432.3788 eV,   31.7789 Ry                                                             
                                                                                                    
   TITEL  = PAW_PBE O_h 06Feb2004                                                                   
   LULTRA =        F    use ultrasoft PP ?                                                          
   IUNSCR =        1    unscreen: 0-lin 1-nonlin 2-no                                               
   RPACOR =    0.800    partial core radius                                                         
   POMASS =   16.000; ZVAL   =    6.000    mass and valenz                                          
   RCORE  =    1.100    outmost cutoff radius                                                       
   RWIGS  =    1.400; RWIGS  =    0.741    wigner-seitz radius (au A)                               
   ENMAX  =  700.000; ENMIN  =  500.000 eV                                                          
   ICORE  =        2    local potential                                                             
   LCOR   =        T    correct aug charges                                                         
   LPAW   =        T    paw PP                                                                      
   EAUG   =  888.804                                                                                
   DEXC   =    0.000                                                                                
   RMAX   =    1.128    core radius for proj-oper                                                   
   RAUG   =    1.300    factor for augmentation sphere                                              
   RDEP   =    1.125    radius for radial grids                                                     
   RDEPT  =    1.088    core radius for aug-charge                                                  
                                                                                                    
   Atomic configuration                                                                             
    4 entries                                                                                       
     n  l   j            E        occ.                                                              
     1  0  0.50      -514.6923   2.0000                                                             
     2  0  0.50       -23.9615   2.0000                                                             
     2  1  0.50        -9.0305   4.0000                                                             
     3  2  1.50        -9.5241   0.0000                                                             
   Description                                                                                      
     l       E           TYP  RCUT    TYP  RCUT                                                     
     0    -23.9615319     23  1.100                                                                 
     0    -25.3221145     23  1.100                                                                 
     1     -9.0304911     23  1.100                                                                 
     1     -5.4802209     23  1.100                                                                 
     2     -9.5240782      7  1.100                                                                 
  local pseudopotential read in
  partial core-charges read in
  partial kinetic energy density read in
  atomic valenz-charges read in
  non local Contribution for L=           0  read in
    real space projection operators read in
  non local Contribution for L=           0  read in
    real space projection operators read in
  non local Contribution for L=           1  read in
    real space projection operators read in
  non local Contribution for L=           1  read in
    real space projection operators read in
    PAW grid and wavefunctions read in
 
   number of l-projection  operators is LMAX  =           4
   number of lm-projection operators is LMMAX =           8
 
 -----------------------------------------------------------------------------
|                                                                             |
|               ----> ADVICE to this user running VASP <----                  |
|                                                                             |
|     You have a (more or less) 'large supercell' and for larger cells it     |
|     might be more efficient to use real-space projection operators.         |
|     Therefore, try LREAL= Auto in the INCAR file.                           |
|     Mind: For very accurate calculation, you might also keep the            |
|     reciprocal projection scheme (i.e. LREAL=.FALSE.).                      |
|                                                                             |
 -----------------------------------------------------------------------------

 -----------------------------------------------------------------------------
|                                                                             |
|               ----> ADVICE to this user running VASP <----                  |
|                                                                             |
|     You enforced a specific xc type in the INCAR file but a different       |
|     type was found in the POTCAR file.                                      |
|     I HOPE YOU KNOW WHAT YOU ARE DOING!                                     |
|                                                                             |
 -----------------------------------------------------------------------------

  PAW_PBE C_h 06Feb2004                 :
 energy of atom  1       EATOM= -147.1560
 kinetic energy error for atom=    0.0031 (will be added to EATOM!!)
  PAW_PBE O_h 06Feb2004                 :
 energy of atom  2       EATOM= -432.3788
 kinetic energy error for atom=    0.0171 (will be added to EATOM!!)
 
 
 POSCAR:  C  O
  positions in cartesian coordinates
  No initial velocities read in
 exchange correlation table for  LEXCH =       44
   RHO(1)=    0.500       N(1)  =     2000
   RHO(2)=  100.500       N(2)  =     4000
 


--------------------------------------------------------------------------------------------------------


 ion  position               nearest neighbor table
   1  0.972  0.000  0.001-  50 1.42   2 1.42  42 1.42
   2  0.039  0.134  0.001-   5 1.42   7 1.42   1 1.42
   3  0.172  0.000  0.001-  42 1.42  44 1.42   4 1.42
   4  0.239  0.134  0.000-   7 1.42   3 1.42  23 1.42
   5  0.972  0.200  0.001-   6 1.42   2 1.42  34 1.42
   6  0.039  0.334  0.001-   5 1.42  21 1.42  11 1.42
   7  0.172  0.200  0.000-   8 1.42   2 1.42   4 1.42
   8  0.239  0.334  0.000-  13 1.42   7 1.42  21 1.42
   9  0.372  0.000  0.001-  10 1.42  44 1.42  46 1.42
  10  0.439  0.134  0.000-  27 1.42   9 1.42  23 1.42
  11  0.972  0.400  0.001-  12 1.42  36 1.42   6 1.42
  12  0.039  0.534  0.001-  25 1.42  11 1.42  17 1.42
  13  0.372  0.400  0.000-   8 1.42  14 1.42  24 1.42
  14  0.439  0.534  0.000-  13 1.42  29 1.42  19 1.42
  15  0.572  0.000  0.001-  46 1.42  16 1.42  48 1.42
  16  0.639  0.134  0.001-  15 1.42  35 1.42  27 1.42
  17  0.972  0.600  0.001-  38 1.42  18 1.42  12 1.42
  18  0.039  0.734  0.001-  43 1.42  41 1.42  17 1.42
  19  0.572  0.600  0.001-  14 1.42  20 1.42  32 1.42
  20  0.639  0.734  0.001-  49 1.42  19 1.42  47 1.42
  21  0.172  0.400  0.000-  22 1.42   8 1.42   6 1.42
  22  0.239  0.534  0.000-  21 1.42  29 1.42  25 1.42
  23  0.372  0.200  0.000-  10 1.42   4 1.42  24 1.42
  24  0.439  0.334  0.000-  13 1.42  31 1.42  23 1.42
  25  0.172  0.600  0.001-  26 1.42  12 1.42  22 1.42
  26  0.239  0.734  0.001-  25 1.42  45 1.42  43 1.42
  27  0.572  0.200  0.001-  10 1.42  28 1.42  16 1.42
  28  0.639  0.334  0.001-  27 1.42  37 1.42  31 1.42
  29  0.372  0.600  0.000-  22 1.42  14 1.42  30 1.42
  30  0.439  0.734  0.001-  47 1.42  29 1.42  45 1.42
  31  0.572  0.400  0.000-  32 1.42  28 1.42  24 1.42
  32  0.639  0.534  0.001-  31 1.42  39 1.42  19 1.42
  33  0.772  0.000  0.001-  34 1.42  48 1.42  50 1.42
  34  0.839  0.134  0.001-  33 1.42   5 1.42  35 1.42
  35  0.772  0.200  0.001-  36 1.42  16 1.42  34 1.42
  36  0.839  0.334  0.001-  35 1.42  11 1.42  37 1.42
  37  0.772  0.400  0.001-  28 1.42  38 1.42  36 1.42
  38  0.839  0.534  0.001-  17 1.42  37 1.42  39 1.42
  39  0.772  0.600  0.001-  40 1.42  38 1.42  32 1.42
  40  0.839  0.734  0.001-  39 1.42  49 1.42  41 1.42
  41  0.972  0.800  0.001-  18 1.42  42 1.42  40 1.42
  42  0.039  0.934  0.001-   3 1.42  41 1.42   1 1.42
  43  0.172  0.800  0.001-  18 1.42  44 1.42  26 1.42
  44  0.239  0.934  0.001-   9 1.42  43 1.42   3 1.42
  45  0.372  0.800  0.001-  26 1.42  46 1.42  30 1.42
  46  0.439  0.934  0.001-  15 1.42  45 1.42   9 1.42
  47  0.572  0.800  0.001-  30 1.42  48 1.42  20 1.42
  48  0.639  0.934  0.001-  47 1.42  33 1.42  15 1.42
  49  0.772  0.800  0.001-  50 1.42  20 1.42  40 1.42
  50  0.839  0.934  0.001-  49 1.42   1 1.42  33 1.42
  51  0.373  0.251  0.236-  52 1.18  53 1.18
  52  0.421  0.189  0.239-  51 1.18
  53  0.325  0.313  0.233-  51 1.18
 
  LATTYP: Found a hexagonal cell.
 ALAT       =    12.3250000000
 C/A-ratio  =     1.6227180527
  
  Lattice vectors:
  
 A1 = (  12.3250000000,   0.0000000000,   0.0000000000)
 A2 = (  -6.1625000000,  10.6737631016,   0.0000000000)
 A3 = (   0.0000000000,   0.0000000000,  20.0000000000)


Analysis of symmetry for initial positions (statically):
=====================================================================
 Subroutine PRICEL returns:
 Original cell was already a primitive cell.
 

 Routine SETGRP: Setting up the symmetry group for a 
 hexagonal supercell.


 Subroutine GETGRP returns: Found  1 space group operations
 (whereof  1 operations were pure point group operations)
 out of a pool of 24 trial point group operations.


The static configuration has the point symmetry C_1 .


Analysis of symmetry for dynamics (positions and initial velocities):
=====================================================================
 Subroutine PRICEL returns:
 Original cell was already a primitive cell.
 

 Routine SETGRP: Setting up the symmetry group for a 
 hexagonal supercell.


 Subroutine GETGRP returns: Found  1 space group operations
 (whereof  1 operations were pure point group operations)
 out of a pool of 24 trial point group operations.


The dynamic configuration has the point symmetry C_1 .


 Subroutine INISYM returns: Found  1 space group operations
 (whereof  1 operations are pure point group operations),
 and found     1 'primitive' translations


----------------------------------------------------------------------------------------

                                     Primitive cell                                     

  volume of cell :    2631.0826

  direct lattice vectors                    reciprocal lattice vectors
    12.325000000  0.000000000  0.000000000     0.081135903  0.046843835  0.000000000
    -6.162500000 10.673763102  0.000000000     0.000000000  0.093687670  0.000000000
     0.000000000  0.000000000 20.000000000     0.000000000  0.000000000  0.050000000

  length of vectors
    12.325000000 12.325000000 20.000000000     0.093687670  0.093687670  0.050000000

  position of ions in fractional coordinates (direct lattice)
     0.972450841  0.000320818  0.000708389
     0.039118382  0.133659505  0.000550216
     0.172443627  0.000295449  0.000624535
     0.239096278  0.133647917  0.000320585
     0.972452058  0.200322012  0.000606523
     0.039128360  0.333643771  0.000555187
     0.172451764  0.200354552  0.000273959
     0.239124359  0.333665720  0.000090325
     0.372465565  0.000324403  0.000567391
     0.439137473  0.133619939  0.000322923
     0.972449824  0.400309362  0.000684513
     0.039124981  0.533636789  0.000716763
     0.372416176  0.400329481  0.000000000
     0.439099602  0.533638981  0.000290518
     0.572443676  0.000312125  0.000699475
     0.639110207  0.133631751  0.000684093
     0.972452703  0.600305653  0.000800361
     0.039124495  0.733640359  0.000818141
     0.572433471  0.600306242  0.000503618
     0.639111888  0.733641879  0.000659881
     0.172454630  0.400318228  0.000361306
     0.239120185  0.533636548  0.000473136
     0.372459750  0.200295993  0.000111246
     0.439107096  0.333673419  0.000069702
     0.172452155  0.600311506  0.000655425
     0.239123371  0.733638574  0.000718912
     0.572431082  0.200289171  0.000516621
     0.639112773  0.333618630  0.000577970
     0.372439808  0.600308022  0.000453556
     0.439116090  0.733637858  0.000617737
     0.572469358  0.400320504  0.000424897
     0.639119408  0.533650873  0.000574513
     0.772445723  0.000315427  0.000745201
     0.839116277  0.133640203  0.000719132
     0.772440513  0.200307432  0.000726291
     0.839120241  0.333635728  0.000731834
     0.772446320  0.400298367  0.000728722
     0.839118980  0.533633964  0.000776376
     0.772456143  0.600308173  0.000744639
     0.839115033  0.733643180  0.000789390
     0.972455313  0.800305582  0.000815291
     0.039114714  0.933643289  0.000747563
     0.172457971  0.800312211  0.000779216
     0.239134551  0.933647193  0.000681063
     0.372451396  0.800316674  0.000689249
     0.439124489  0.933644769  0.000676788
     0.572441101  0.800310054  0.000668168
     0.639115067  0.933638985  0.000734556
     0.772445098  0.800313187  0.000752577
     0.839116614  0.933644338  0.000758538
     0.373021009  0.251226878  0.235968578
     0.420879805  0.189313152  0.239189671
     0.325156981  0.313167186  0.232995835

  ion indices of the primitive-cell ions
   primitive index   ion index
                 1           1
                 2           2
                 3           3
                 4           4
                 5           5
                 6           6
                 7           7
                 8           8
                 9           9
                10          10
                11          11
                12          12
                13          13
                14          14
                15          15
                16          16
                17          17
                18          18
                19          19
                20          20
                21          21
                22          22
                23          23
                24          24
                25          25
                26          26
                27          27
                28          28
                29          29
                30          30
                31          31
                32          32
                33          33
                34          34
                35          35
                36          36
                37          37
                38          38
                39          39
                40          40
                41          41
                42          42
                43          43
                44          44
                45          45
                46          46
                47          47
                48          48
                49          49
                50          50
                51          51
                52          52
                53          53

----------------------------------------------------------------------------------------

 
 
 KPOINTS: auto                                    

Automatic generation of k-mesh.
 Grid dimensions read from file:
 generate k-points for:    1    1    1

 Generating k-lattice:

  Cartesian coordinates                     Fractional coordinates (reciprocal lattice)
     0.081135903  0.046843835  0.000000000     1.000000000 -0.000000000  0.000000000
     0.000000000  0.093687670  0.000000000     0.000000000  1.000000000  0.000000000
     0.000000000  0.000000000  0.050000000     0.000000000  0.000000000  1.000000000

  Length of vectors
     0.093687670  0.093687670  0.050000000

  Shift w.r.t. Gamma in fractional coordinates (k-lattice)
     0.000000000  0.000000000  0.000000000

 
 Subroutine IBZKPT returns following result:
 ===========================================
 
 Found      1 irreducible k-points:
 
 Following reciprocal coordinates:
            Coordinates               Weight
  0.000000  0.000000  0.000000      1.000000
 
 Following cartesian coordinates:
            Coordinates               Weight
  0.000000  0.000000  0.000000      1.000000
 


--------------------------------------------------------------------------------------------------------




 Dimension of arrays:
   k-points           NKPTS =      1   k-points in BZ     NKDIM =      1   number of bands    NBANDS=    136
   number of dos      NEDOS =    301   number of ions     NIONS =     53
   non local maximal  LDIM  =      4   non local SUM 2l+1 LMDIM =      8
   total plane-waves  NPLWV = ******
   max r-space proj   IRMAX =      1   max aug-charges    IRDMAX=   9736
   dimension x,y,z NGX =   128 NGY =  128 NGZ =  210
   dimension x,y,z NGXF=   256 NGYF=  256 NGZF=  420
   support grid    NGXF=   256 NGYF=  256 NGZF=  420
   ions per type =              51   2
   NGX,Y,Z   is equivalent  to a cutoff of  17.27, 17.27, 17.46 a.u.
   NGXF,Y,Z  is equivalent  to a cutoff of  34.53, 34.53, 34.91 a.u.

 SYSTEM =  unknown system                          
 POSCAR =   C  O                                   

 Startparameter for this run:
   NWRITE =      2    write-flag & timer
   PREC   = accura    normal or accurate (medium, high low for compatibility)
   ISTART =      0    job   : 0-new  1-cont  2-samecut
   ICHARG =      2    charge: 1-file 2-atom 10-const
   ISPIN  =      1    spin polarized calculation?
   LNONCOLLINEAR =      F non collinear calculations
   LSORBIT =      F    spin-orbit coupling
   INIWAV =      1    electr: 0-lowe 1-rand  2-diag
   LASPH  =      T    aspherical Exc in radial PAW
 Electronic Relaxation 1
   ENCUT  = 1000.0 eV  73.50 Ry    8.57 a.u.  31.78 31.78 51.57*2*pi/ulx,y,z
   ENINI  = 1000.0     initial cutoff
   ENAUG  =  946.8 eV  augmentation charge cutoff
   NELM   =     60;   NELMIN=  2; NELMDL= -5     # of ELM steps 
   EDIFF  = 0.1E-06   stopping-criterion for ELM
   LREAL  =      F    real-space projection
   NLSPLINE    = F    spline interpolate recip. space projectors
   LCOMPAT=      F    compatible to vasp.4.4
   GGA_COMPAT  = T    GGA compatible to vasp.4.4-vasp.4.6
   LMAXPAW     = -100 max onsite density
   LMAXMIX     =    2 max onsite mixed and CHGCAR
   VOSKOWN=      0    Vosko Wilk Nusair interpolation
   ROPT   =    0.00000   0.00000
 Ionic relaxation
   EDIFFG = 0.1E-05   stopping-criterion for IOM
   NSW    =      0    number of steps for IOM
   NBLOCK =      1;   KBLOCK =      1    inner block; outer block 
   IBRION =     -1    ionic relax: 0-MD 1-quasi-New 2-CG
   NFREE  =      0    steps in history (QN), initial steepest desc. (CG)
   ISIF   =      0    stress and relaxation
   IWAVPR =     10    prediction:  0-non 1-charg 2-wave 3-comb
   ISYM   =      2    0-nonsym 1-usesym 2-fastsym
   LCORR  =      T    Harris-Foulkes like correction to forces

   POTIM  = 0.5000    time-step for ionic-motion
   TEIN   =    0.0    initial temperature
   TEBEG  =    0.0;   TEEND  =   0.0 temperature during run
   SMASS  =  -3.00    Nose mass-parameter (am)
   estimated Nose-frequenzy (Omega)   =  0.10E-29 period in steps = 0.13E+47 mass=  -0.347E-26a.u.
   SCALEE = 1.0000    scale energy and forces
   NPACO  =    256;   APACO  = 16.0  distance and # of slots for P.C.
   PSTRESS=    0.0 pullay stress

  Mass of Ions in am
   POMASS =  12.01 16.00
  Ionic Valenz
   ZVAL   =   4.00  6.00
  Atomic Wigner-Seitz radii
   RWIGS  =  -1.00 -1.00
  virtual crystal weights 
   VCA    =   1.00  1.00
   NELECT =     216.0000    total number of electrons
   NUPDOWN=      -1.0000    fix difference up-down

 DOS related values:
   EMIN   =  10.00;   EMAX   =-10.00  energy-range for DOS
   EFERMI =   0.00
   ISMEAR =     0;   SIGMA  =   0.01  broadening in eV -4-tet -1-fermi 0-gaus

 Electronic relaxation 2 (details)
   IALGO  =     58    algorithm
   LDIAG  =      T    sub-space diagonalisation (order eigenvalues)
   LSUBROT=      F    optimize rotation matrix (better conditioning)
   TURBO    =      0    0=normal 1=particle mesh
   IRESTART =      0    0=no restart 2=restart with 2 vectors
   NREBOOT  =      0    no. of reboots
   NMIN     =      0    reboot dimension
   EREF     =   0.00    reference energy to select bands
   IMIX   =      4    mixing-type and parameters
     AMIX     =   0.40;   BMIX     =  1.00
     AMIX_MAG =   1.60;   BMIX_MAG =  1.00
     AMIN     =   0.10
     WC   =   100.;   INIMIX=   1;  MIXPRE=   1;  MAXMIX= -45

 Intra band minimization:
   WEIMIN = 0.0000     energy-eigenvalue tresh-hold
   EBREAK =  0.18E-09  absolut break condition
   DEPER  =   0.30     relativ break condition  

   TIME   =   0.40     timestep for ELM

  volume/ion in A,a.u.               =      49.64       335.01
  Fermi-wavevector in a.u.,A,eV,Ry     =   0.711510  1.344560  6.887909  0.506247
  Thomas-Fermi vector in A             =   1.798641
 
 Write flags
   LWAVE        =      F    write WAVECAR
   LDOWNSAMPLE  =      F    k-point downsampling of WAVECAR
   LCHARG       =      T    write CHGCAR
   LVTOT        =      F    write LOCPOT, total local potential
   LVHAR        =      F    write LOCPOT, Hartree potential only
   LELF         =      F    write electronic localiz. function (ELF)
   LORBIT       =      0    0 simple, 1 ext, 2 COOP (PROOUT), +10 PAW based schemes


 Dipole corrections
   LMONO  =      F    monopole corrections only (constant potential shift)
   LDIPOL =      F    correct potential (dipole corrections)
   IDIPOL =      0    1-x, 2-y, 3-z, 4-all directions 
   EPSILON=  1.0000000 bulk dielectric constant

 Exchange correlation treatment:
   GGA     =    ML    GGA type
   LEXCH   =    44    internal setting for exchange type
   VOSKOWN=      0    Vosko Wilk Nusair interpolation
   LHFCALC =     F    Hartree Fock is set to
   LHFONE  =     F    Hartree Fock one center treatment
   AEXX    =    0.0000 exact exchange contribution

 vdW DFT:
   LUSE_VDW   =     T    switch on vdW DFT
   Zab_VDW    =******    correlation parameter
   PARAM1     =0.1234
   PARAM2     =1.0000
   PARAM3     =0.0000
   -- rVV10 --
   BPARAM     = 6.3000
   CPARAM     = 0.0093

 Linear response parameters
   LEPSILON=     F    determine dielectric tensor
   LRPA    =     F    only Hartree local field effects (RPA)
   LNABLA  =     F    use nabla operator in PAW spheres
   LVEL    =     F    velocity operator in full k-point grid
   LINTERFAST=   F  fast interpolation
   KINTER  =     0    interpolate to denser k-point grid
   CSHIFT  =0.1000    complex shift for real part using Kramers Kronig
   OMEGAMAX=  -1.0    maximum frequency
   DEG_THRESHOLD= 0.2000000E-02 threshold for treating states as degnerate
   RTIME   =   -0.100 relaxation time in fs
  (WPLASMAI=    0.000 imaginary part of plasma frequency in eV, 0.658/RTIME)
   DFIELD  = 0.0000000 0.0000000 0.0000000 field for delta impulse in time
 
 Orbital magnetization related:
   ORBITALMAG=     F  switch on orbital magnetization
   LCHIMAG   =     F  perturbation theory with respect to B field
   DQ        =  0.001000  dq finite difference perturbation B field
   LLRAUG    =     F  two centre corrections for induced B field



--------------------------------------------------------------------------------------------------------


 Static calculation
 charge density and potential will be updated during run
 non-spin polarized calculation
 Conjugate gradient for all bands (Freysoldt, et al. PRB 79, 241103 (2009))
 preconditioned conjugated gradient                                        
 perform sub-space diagonalisation
    before iterative eigenvector-optimisation
 modified Broyden-mixing scheme, WC =      100.0
 initial mixing is a Kerker type mixing with AMIX =  0.4000 and BMIX =      1.0000
 Hartree-type preconditioning will be used
 using additional bands           28
 reciprocal scheme for non local part
 use partial core corrections
 no Harris-corrections to forces 
 use gradient corrections 
 use of overlap-Matrix (Vanderbilt PP)
 Gauss-broadening in eV      SIGMA  =   0.01


--------------------------------------------------------------------------------------------------------


  energy-cutoff  :     1000.00
  volume of cell :     2631.08
      direct lattice vectors                 reciprocal lattice vectors
    12.325000000  0.000000000  0.000000000     0.081135903  0.046843835  0.000000000
    -6.162500000 10.673763102  0.000000000     0.000000000  0.093687670  0.000000000
     0.000000000  0.000000000 20.000000000     0.000000000  0.000000000  0.050000000

  length of vectors
    12.325000000 12.325000000 20.000000000     0.093687670  0.093687670  0.050000000


 
 k-points in units of 2pi/SCALE and weight: auto                                    
   0.00000000  0.00000000  0.00000000       1.000
 
 k-points in reciprocal lattice and weights: auto                                    
   0.00000000  0.00000000  0.00000000       1.000
 
 position of ions in fractional coordinates (direct lattice) 
   0.97245084  0.00032082  0.00070839
   0.03911838  0.13365950  0.00055022
   0.17244363  0.00029545  0.00062454
   0.23909628  0.13364792  0.00032058
   0.97245206  0.20032201  0.00060652
   0.03912836  0.33364377  0.00055519
   0.17245176  0.20035455  0.00027396
   0.23912436  0.33366572  0.00009033
   0.37246557  0.00032440  0.00056739
   0.43913747  0.13361994  0.00032292
   0.97244982  0.40030936  0.00068451
   0.03912498  0.53363679  0.00071676
   0.37241618  0.40032948  0.00000000
   0.43909960  0.53363898  0.00029052
   0.57244368  0.00031213  0.00069947
   0.63911021  0.13363175  0.00068409
   0.97245270  0.60030565  0.00080036
   0.03912449  0.73364036  0.00081814
   0.57243347  0.60030624  0.00050362
   0.63911189  0.73364188  0.00065988
   0.17245463  0.40031823  0.00036131
   0.23912018  0.53363655  0.00047314
   0.37245975  0.20029599  0.00011125
   0.43910710  0.33367342  0.00006970
   0.17245216  0.60031151  0.00065542
   0.23912337  0.73363857  0.00071891
   0.57243108  0.20028917  0.00051662
   0.63911277  0.33361863  0.00057797
   0.37243981  0.60030802  0.00045356
   0.43911609  0.73363786  0.00061774
   0.57246936  0.40032050  0.00042490
   0.63911941  0.53365087  0.00057451
   0.77244572  0.00031543  0.00074520
   0.83911628  0.13364020  0.00071913
   0.77244051  0.20030743  0.00072629
   0.83912024  0.33363573  0.00073183
   0.77244632  0.40029837  0.00072872
   0.83911898  0.53363396  0.00077638
   0.77245614  0.60030817  0.00074464
   0.83911503  0.73364318  0.00078939
   0.97245531  0.80030558  0.00081529
   0.03911471  0.93364329  0.00074756
   0.17245797  0.80031221  0.00077922
   0.23913455  0.93364719  0.00068106
   0.37245140  0.80031667  0.00068925
   0.43912449  0.93364477  0.00067679
   0.57244110  0.80031005  0.00066817
   0.63911507  0.93363899  0.00073456
   0.77244510  0.80031319  0.00075258
   0.83911661  0.93364434  0.00075854
   0.37302101  0.25122688  0.23596858
   0.42087980  0.18931315  0.23918967
   0.32515698  0.31316719  0.23299583
 
 position of ions in cartesian coordinates  (Angst):
  11.98347958  0.00342433  0.01416777
  -0.34154264  1.42664989  0.01100432
   2.12354700  0.00315355  0.01249070
   2.12325634  1.42652621  0.00641170
  10.75098721  2.13818970  0.01213047
  -1.57382270  3.56123457  0.01110375
   0.89078307  2.13853702  0.00547917
   0.89099273  3.56146885  0.00180651
   4.58863896  0.00346260  0.01134782
   4.58893648  1.42622757  0.00645846
   9.51853763  4.27280730  0.01369027
  -2.80632132  5.69591267  0.01433526
   2.12299894  4.27302204  0.00000000
   2.12335237  5.69593607  0.00581036
   7.05344483  0.00333155  0.01398950
   7.05352764  1.42635365  0.01368187
   8.28609598  6.40752033  0.01600723
  -4.03884931  7.83070339  0.01636283
   3.35585531  6.40752662  0.01007237
   3.35598594  7.83071962  0.01319763
  -0.34145776  4.27290193  0.00722612
  -0.34137895  5.69591010  0.00946273
   3.35624236  2.13791198  0.00222492
   3.35573251  3.56155103  0.00139405
  -1.57394684  6.40758280  0.01310850
  -1.57385216  7.83068434  0.01437823
   5.82093107  2.13783916  0.01033241
   5.82114012  3.56096622  0.01155939
   0.89092245  6.40754561  0.00907111
   0.89106251  7.83067670  0.01235474
   4.58870974  4.27292622  0.00849795
   4.58852320  5.69606300  0.01149026
   9.51844972  0.00336679  0.01490402
   9.51855036  1.42644387  0.01438264
   8.28593477  2.13803408  0.01452582
   8.28612680  3.56114872  0.01463668
   7.05356221  4.27268994  0.01457444
   7.05362213  5.69588251  0.01552751
   5.82112285  6.40754723  0.01489279
   5.82101669  7.83073350  0.01578780
   7.05362858  8.54227219  0.01630582
  -5.27148792  9.96548729  0.01495127
  -2.80637951  8.54234295  0.01558431
  -2.80626749  9.96552896  0.01362126
  -0.34148805  8.54239058  0.01378498
  -0.34137657  9.96550309  0.01353576
   2.12342586  8.54231992  0.01336337
   2.12354296  9.96544135  0.01469111
   4.58845581  8.54235337  0.01505154
   4.58852904  9.96549848  0.01517076
   3.04929830  2.68153618  4.71937156
   4.02070129  2.02068374  4.78379342
   2.07766701  3.34267235  4.65991669
 


--------------------------------------------------------------------------------------------------------


 k-point   1 :   0.0000 0.0000 0.0000  plane waves:  189031

 maximum and minimum number of plane-waves per node :      6755     6748

 maximum number of plane-waves:    189031
 maximum index in each direction: 
   IXMAX=   31   IYMAX=   31   IZMAX=   51
   IXMIN=  -31   IYMIN=  -31   IZMIN=  -51


 parallel 3D FFT for wavefunctions:
    minimum data exchange during FFTs selected (reduces bandwidth)
 parallel 3D FFT for charge:
    minimum data exchange during FFTs selected (reduces bandwidth)


 total amount of memory used by VASP MPI-rank0    85439. kBytes
=======================================================================

   base      :      30000. kBytes
   nonl-proj :       6586. kBytes
   fftplans  :      14299. kBytes
   grid      :      23511. kBytes
   one-center:          6. kBytes
   wavefun   :      11037. kBytes
 
     INWAV:  cpu time    0.0000: real time    0.0000
 Broyden mixing: mesh for mixing (old mesh)
   NGX = 63   NGY = 63   NGZ =103
  (NGX  =256   NGY  =256   NGZ  =420)
  gives a total of 408807 points

 initial charge density was supplied:
 charge density of overlapping atoms calculated
 number of electron     216.0000000 magnetization 
 keeping initial charge density in first step


--------------------------------------------------------------------------------------------------------


 Maximum index for augmentation-charges          459 (set IRDMAX)


--------------------------------------------------------------------------------------------------------


 First call to EWALD:  gamma=   0.128
 Maximum number of real-space cells 3x 3x 2
 Maximum number of reciprocal cells 3x 3x 4

    FEWALD:  cpu time    0.0026: real time    0.0026


--------------------------------------- Iteration      1(   1)  ---------------------------------------


vdW kernel read from vdw_kernel.bindat
  0.0000  0.2424  0.5071  0.7962  1.1119  1.4567  1.8333  2.2446  2.6937  3.1842
  3.7199  4.3049  4.9438  5.6415  6.4036  7.2358  8.1446  9.1372 10.2212 11.4050
 12.6979 14.1099 15.6519 17.3360 19.1751 21.1837 23.3773 25.7729 28.3892 31.2465
 34.3669 37.7748 41.4965 45.5611 50.0000
 
    POTLOK:  cpu time    3.4473: real time    3.4864
    SETDIJ:  cpu time    0.0548: real time    0.0551
    TRIAL :  cpu time    1.5170: real time    1.5329
    CORREC:  cpu time    0.0005: real time    0.0009
    --------------------------------------------
      LOOP:  cpu time    5.0225: real time    5.0993

 eigenvalue-minimisations  :   272
 total energy-change (2. order) : 0.2840329E+04  (-0.1100285E+05)
 number of electron     216.0000000 magnetization 
 augmentation part      216.0000000 magnetization 

 Free energy of the ion-electron system (eV)
  ---------------------------------------------------
  alpha Z        PSCENC =        59.93625244
  Ewald energy   TEWEN  =     32288.69155692
  -Hartree energ DENC   =    -38464.12185050
  -exchange      EXHF   =         0.00000000
  -V(xc)+E(xc)   XCENC  =       352.73329093
  PAW double counting   =      6601.42964284    -6299.49404826
  entropy T*S    EENTRO =        -0.00000000
  eigenvalues    EBANDS =      -256.25849594
  atomic energy  EATOM  =      8557.41276814
  ---------------------------------------------------
  free energy    TOTEN  =      2840.32911657 eV

  energy without entropy =     2840.32911657  energy(sigma->0) =     2840.32911657


--------------------------------------------------------------------------------------------------------




--------------------------------------- Iteration      1(   2)  ---------------------------------------


    TRIAL :  cpu time    2.0769: real time    2.0960
    CORREC:  cpu time    0.0001: real time    0.0001
    --------------------------------------------
      LOOP:  cpu time    2.1576: real time    2.1786

 eigenvalue-minimisations  :   424
 total energy-change (2. order) :-0.2424165E+04  (-0.2261583E+04)
 number of electron     216.0000000 magnetization 
 augmentation part      216.0000000 magnetization 

 Free energy of the ion-electron system (eV)
  ---------------------------------------------------
  alpha Z        PSCENC =        59.93625244
  Ewald energy   TEWEN  =     32288.69155692
  -Hartree energ DENC   =    -38464.12185050
  -exchange      EXHF   =         0.00000000
  -V(xc)+E(xc)   XCENC  =       352.73329093
  PAW double counting   =      6601.42964284    -6299.49404826
  entropy T*S    EENTRO =        -0.00000000
  eigenvalues    EBANDS =     -2680.42312476
  atomic energy  EATOM  =      8557.41276814
  ---------------------------------------------------
  free energy    TOTEN  =       416.16448776 eV

  energy without entropy =      416.16448776  energy(sigma->0) =      416.16448776


--------------------------------------------------------------------------------------------------------




--------------------------------------- Iteration      1(   3)  ---------------------------------------


    TRIAL :  cpu time    1.7909: real time    1.8109
    CORREC:  cpu time    0.0001: real time    0.0001
    --------------------------------------------
      LOOP:  cpu time    1.8307: real time    1.8529

 eigenvalue-minimisations  :   352
 total energy-change (2. order) :-0.7855253E+03  (-0.7804453E+03)
 number of electron     216.0000000 magnetization 
 augmentation part      216.0000000 magnetization 

 Free energy of the ion-electron system (eV)
  ---------------------------------------------------
  alpha Z        PSCENC =        59.93625244
  Ewald energy   TEWEN  =     32288.69155692
  -Hartree energ DENC   =    -38464.12185050
  -exchange      EXHF   =         0.00000000
  -V(xc)+E(xc)   XCENC  =       352.73329093
  PAW double counting   =      6601.42964284    -6299.49404826
  entropy T*S    EENTRO =        -0.00000000
  eigenvalues    EBANDS =     -3465.94837955
  atomic energy  EATOM  =      8557.41276814
  ---------------------------------------------------
  free energy    TOTEN  =      -369.36076704 eV

  energy without entropy =     -369.36076704  energy(sigma->0) =     -369.36076704


--------------------------------------------------------------------------------------------------------




--------------------------------------- Iteration      1(   4)  ---------------------------------------


    TRIAL :  cpu time    1.7579: real time    1.7780
    CORREC:  cpu time    0.0001: real time    0.0000
    --------------------------------------------
      LOOP:  cpu time    1.8086: real time    1.8292

 eigenvalue-minimisations  :   344
 total energy-change (2. order) :-0.6107094E+02  (-0.6028480E+02)
 number of electron     216.0000000 magnetization 
 augmentation part      216.0000000 magnetization 

 Free energy of the ion-electron system (eV)
  ---------------------------------------------------
  alpha Z        PSCENC =        59.93625244
  Ewald energy   TEWEN  =     32288.69155692
  -Hartree energ DENC   =    -38464.12185050
  -exchange      EXHF   =         0.00000000
  -V(xc)+E(xc)   XCENC  =       352.73329093
  PAW double counting   =      6601.42964284    -6299.49404826
  entropy T*S    EENTRO =        -0.00000000
  eigenvalues    EBANDS =     -3527.01931995
  atomic energy  EATOM  =      8557.41276814
  ---------------------------------------------------
  free energy    TOTEN  =      -430.43170744 eV

  energy without entropy =     -430.43170744  energy(sigma->0) =     -430.43170744


--------------------------------------------------------------------------------------------------------




--------------------------------------- Iteration      1(   5)  ---------------------------------------


    TRIAL :  cpu time    1.7940: real time    1.8102
    CORREC:  cpu time    0.0001: real time    0.0001
    CHARGE:  cpu time    0.1194: real time    0.1212
    --------------------------------------------
      LOOP:  cpu time    1.9425: real time    2.0215

 eigenvalue-minimisations  :   352
 total energy-change (2. order) :-0.1864402E+01  (-0.1856050E+01)
 number of electron     216.0000000 magnetization 
 augmentation part       -0.1443756 magnetization 

 Free energy of the ion-electron system (eV)
  ---------------------------------------------------
  alpha Z        PSCENC =        59.93625244
  Ewald energy   TEWEN  =     32288.69155692
  -Hartree energ DENC   =    -38464.12185050
  -exchange      EXHF   =         0.00000000
  -V(xc)+E(xc)   XCENC  =       352.73329093
  PAW double counting   =      6601.42964284    -6299.49404826
  entropy T*S    EENTRO =        -0.00000000
  eigenvalues    EBANDS =     -3528.88372157
  atomic energy  EATOM  =      8557.41276814
  ---------------------------------------------------
  free energy    TOTEN  =      -432.29610906 eV

  energy without entropy =     -432.29610906  energy(sigma->0) =     -432.29610906


--------------------------------------------------------------------------------------------------------




--------------------------------------- Iteration      1(   6)  ---------------------------------------


    POTLOK:  cpu time    3.1281: real time    3.1518
    SETDIJ:  cpu time    0.0527: real time    0.0529
    TRIAL :  cpu time    0.8630: real time    0.8717
    CORREC:  cpu time    3.4908: real time    3.5194
    CHARGE:  cpu time    0.1171: real time    0.1184
    --------------------------------------------
      LOOP:  cpu time    7.7307: real time    7.8087

 eigenvalue-minimisations  :     0
 total energy-change (2. order) : 0.6355272E+02  (-0.2169728E+02)
 number of electron     216.0000000 magnetization 
 augmentation part       -0.2760542 magnetization 

 Free energy of the ion-electron system (eV)
  ---------------------------------------------------
  alpha Z        PSCENC =        59.93625244
  Ewald energy   TEWEN  =     32288.69155692
  -Hartree energ DENC   =    -39995.97996993
  -exchange      EXHF   =         0.00000000
  -V(xc)+E(xc)   XCENC  =       408.08200687
  PAW double counting   =     52825.92826788   -52548.05729160
  entropy T*S    EENTRO =        -0.00000000
  eigenvalues    EBANDS =     -1964.75698169
  atomic energy  EATOM  =      8557.41276814
  ---------------------------------------------------
  free energy    TOTEN  =      -368.74339096 eV

  energy without entropy =     -368.74339096  energy(sigma->0) =     -368.74339096


--------------------------------------------------------------------------------------------------------




--------------------------------------- Iteration      1(   7)  ---------------------------------------


    POTLOK:  cpu time    3.1385: real time    3.1634
    SETDIJ:  cpu time    0.0621: real time    0.0623
    TRIAL :  cpu time    0.8625: real time    0.8711
    CORREC:  cpu time    3.4807: real time    3.5095
    CHARGE:  cpu time    0.1174: real time    0.1186
    --------------------------------------------
      LOOP:  cpu time    7.6818: real time    7.7570

 eigenvalue-minimisations  :     0
 total energy-change (2. order) :-0.2180416E+02  (-0.2160941E+01)
 number of electron     216.0000000 magnetization 
 augmentation part       -0.3300070 magnetization 

 Free energy of the ion-electron system (eV)
  ---------------------------------------------------
  alpha Z        PSCENC =        59.93625244
  Ewald energy   TEWEN  =     32288.69155692
  -Hartree energ DENC   =    -39404.40671479
  -exchange      EXHF   =         0.00000000
  -V(xc)+E(xc)   XCENC  =       385.59883740
  PAW double counting   =     68550.74209048   -68265.85736224
  entropy T*S    EENTRO =        -0.00000000
  eigenvalues    EBANDS =     -2562.66497679
  atomic energy  EATOM  =      8557.41276814
  ---------------------------------------------------
  free energy    TOTEN  =      -390.54754845 eV

  energy without entropy =     -390.54754845  energy(sigma->0) =     -390.54754845


--------------------------------------------------------------------------------------------------------




--------------------------------------- Iteration      1(   8)  ---------------------------------------


    POTLOK:  cpu time    3.1141: real time    3.1382
    SETDIJ:  cpu time    0.0641: real time    0.0644
    TRIAL :  cpu time    0.8598: real time    0.8683
    CORREC:  cpu time    3.5149: real time    3.5440
    CHARGE:  cpu time    0.1160: real time    0.1172
    --------------------------------------------
      LOOP:  cpu time    7.7583: real time    7.8220

 eigenvalue-minimisations  :     0
 total energy-change (2. order) :-0.2158055E+01  (-0.5915670E+00)
 number of electron     216.0000000 magnetization 
 augmentation part       -0.3529829 magnetization 

 Free energy of the ion-electron system (eV)
  ---------------------------------------------------
  alpha Z        PSCENC =        59.93625244
  Ewald energy   TEWEN  =     32288.69155692
  -Hartree energ DENC   =    -39376.58683301
  -exchange      EXHF   =         0.00000000
  -V(xc)+E(xc)   XCENC  =       385.06547891
  PAW double counting   =     73727.70872154   -73441.70327945
  entropy T*S    EENTRO =        -0.00000000
  eigenvalues    EBANDS =     -2593.23026940
  atomic energy  EATOM  =      8557.41276814
  ---------------------------------------------------
  free energy    TOTEN  =      -392.70560391 eV

  energy without entropy =     -392.70560391  energy(sigma->0) =     -392.70560391


--------------------------------------------------------------------------------------------------------




--------------------------------------- Iteration      1(   9)  ---------------------------------------


    POTLOK:  cpu time    3.1153: real time    3.1399
    SETDIJ:  cpu time    0.0625: real time    0.0628
    TRIAL :  cpu time    0.8613: real time    0.8695
    CORREC:  cpu time    3.4791: real time    3.5074
    CHARGE:  cpu time    0.1162: real time    0.1174
    --------------------------------------------
      LOOP:  cpu time    7.6899: real time    7.7528

 eigenvalue-minimisations  :     0
 total energy-change (2. order) :-0.5916934E+00  (-0.2143004E+00)
 number of electron     216.0000000 magnetization 
 augmentation part       -0.3616047 magnetization 

 Free energy of the ion-electron system (eV)
  ---------------------------------------------------
  alpha Z        PSCENC =        59.93625244
  Ewald energy   TEWEN  =     32288.69155692
  -Hartree energ DENC   =    -39391.15287931
  -exchange      EXHF   =         0.00000000
  -V(xc)+E(xc)   XCENC  =       385.49648786
  PAW double counting   =     78039.91110601   -77753.44340963
  entropy T*S    EENTRO =        -0.00000000
  eigenvalues    EBANDS =     -2580.14917972
  atomic energy  EATOM  =      8557.41276814
  ---------------------------------------------------
  free energy    TOTEN  =      -393.29729727 eV

  energy without entropy =     -393.29729727  energy(sigma->0) =     -393.29729727


--------------------------------------------------------------------------------------------------------




--------------------------------------- Iteration      1(  10)  ---------------------------------------


    POTLOK:  cpu time    3.1214: real time    3.1451
    SETDIJ:  cpu time    0.0639: real time    0.0641
    TRIAL :  cpu time    0.8595: real time    0.8678
    CORREC:  cpu time    3.5228: real time    3.5504
    CHARGE:  cpu time    0.1177: real time    0.1190
    --------------------------------------------
      LOOP:  cpu time    7.7147: real time    7.8044

 eigenvalue-minimisations  :     0
 total energy-change (2. order) :-0.2138765E+00  (-0.9192521E-01)
 number of electron     216.0000000 magnetization 
 augmentation part       -0.3593167 magnetization 

 Free energy of the ion-electron system (eV)
  ---------------------------------------------------
  alpha Z        PSCENC =        59.93625244
  Ewald energy   TEWEN  =     32288.69155692
  -Hartree energ DENC   =    -39388.49790183
  -exchange      EXHF   =         0.00000000
  -V(xc)+E(xc)   XCENC  =       385.46033070
  PAW double counting   =     79835.26334344   -79548.50765594
  entropy T*S    EENTRO =        -0.00000000
  eigenvalues    EBANDS =     -2583.26986766
  atomic energy  EATOM  =      8557.41276814
  ---------------------------------------------------
  free energy    TOTEN  =      -393.51117379 eV

  energy without entropy =     -393.51117379  energy(sigma->0) =     -393.51117379


--------------------------------------------------------------------------------------------------------




--------------------------------------- Iteration      1(  11)  ---------------------------------------


    POTLOK:  cpu time    3.1430: real time    3.1658
    SETDIJ:  cpu time    0.0640: real time    0.0642
    TRIAL :  cpu time    0.8612: real time    0.8695
    CORREC:  cpu time    3.4968: real time    3.5236
    CHARGE:  cpu time    0.1160: real time    0.1172
    --------------------------------------------
      LOOP:  cpu time    7.6962: real time    7.7978

 eigenvalue-minimisations  :     0
 total energy-change (2. order) :-0.9167096E-01  (-0.3789387E-01)
 number of electron     216.0000000 magnetization 
 augmentation part       -0.3568438 magnetization 

 Free energy of the ion-electron system (eV)
  ---------------------------------------------------
  alpha Z        PSCENC =        59.93625244
  Ewald energy   TEWEN  =     32288.69155692
  -Hartree energ DENC   =    -39382.56415765
  -exchange      EXHF   =         0.00000000
  -V(xc)+E(xc)   XCENC  =       385.40942189
  PAW double counting   =     79967.81646091   -79680.99791656
  entropy T*S    EENTRO =        -0.00000000
  eigenvalues    EBANDS =     -2589.30723084
  atomic energy  EATOM  =      8557.41276814
  ---------------------------------------------------
  free energy    TOTEN  =      -393.60284475 eV

  energy without entropy =     -393.60284475  energy(sigma->0) =     -393.60284475


--------------------------------------------------------------------------------------------------------




--------------------------------------- Iteration      1(  12)  ---------------------------------------


    POTLOK:  cpu time    3.1225: real time    3.1482
    SETDIJ:  cpu time    0.0643: real time    0.0645
    TRIAL :  cpu time    0.8616: real time    0.8704
    CORREC:  cpu time    3.4770: real time    3.5052
    CHARGE:  cpu time    0.1159: real time    0.1170
    --------------------------------------------
      LOOP:  cpu time    7.6998: real time    7.7643

 eigenvalue-minimisations  :     0
 total energy-change (2. order) :-0.3774603E-01  (-0.1210481E-01)
 number of electron     216.0000000 magnetization 
 augmentation part       -0.3562337 magnetization 

 Free energy of the ion-electron system (eV)
  ---------------------------------------------------
  alpha Z        PSCENC =        59.93625244
  Ewald energy   TEWEN  =     32288.69155692
  -Hartree energ DENC   =    -39380.11082799
  -exchange      EXHF   =         0.00000000
  -V(xc)+E(xc)   XCENC  =       385.34613664
  PAW double counting   =     79545.74190509   -79258.97365048
  entropy T*S    EENTRO =        -0.00000000
  eigenvalues    EBANDS =     -2591.68473154
  atomic energy  EATOM  =      8557.41276814
  ---------------------------------------------------
  free energy    TOTEN  =      -393.64059078 eV

  energy without entropy =     -393.64059078  energy(sigma->0) =     -393.64059078


--------------------------------------------------------------------------------------------------------




--------------------------------------- Iteration      1(  13)  ---------------------------------------


    POTLOK:  cpu time    3.1280: real time    3.1526
    SETDIJ:  cpu time    0.0616: real time    0.0618
    TRIAL :  cpu time    0.8616: real time    0.8702
    CORREC:  cpu time    3.4814: real time    3.5097
    CHARGE:  cpu time    0.1168: real time    0.1180
    --------------------------------------------
      LOOP:  cpu time    7.6836: real time    7.7689

 eigenvalue-minimisations  :     0
 total energy-change (2. order) :-0.1209155E-01  (-0.3534140E-02)
 number of electron     216.0000000 magnetization 
 augmentation part       -0.3560075 magnetization 

 Free energy of the ion-electron system (eV)
  ---------------------------------------------------
  alpha Z        PSCENC =        59.93625244
  Ewald energy   TEWEN  =     32288.69155692
  -Hartree energ DENC   =    -39379.95437991
  -exchange      EXHF   =         0.00000000
  -V(xc)+E(xc)   XCENC  =       385.31644610
  PAW double counting   =     79180.41949205   -78893.70264638
  entropy T*S    EENTRO =        -0.00000000
  eigenvalues    EBANDS =     -2591.77217169
  atomic energy  EATOM  =      8557.41276814
  ---------------------------------------------------
  free energy    TOTEN  =      -393.65268232 eV

  energy without entropy =     -393.65268232  energy(sigma->0) =     -393.65268232


--------------------------------------------------------------------------------------------------------




--------------------------------------- Iteration      1(  14)  ---------------------------------------


    POTLOK:  cpu time    3.1234: real time    3.1479
    SETDIJ:  cpu time    0.0632: real time    0.0634
    TRIAL :  cpu time    0.8601: real time    0.8684
    CORREC:  cpu time    3.5033: real time    3.5315
    CHARGE:  cpu time    0.1161: real time    0.1172
    --------------------------------------------
      LOOP:  cpu time    7.7266: real time    7.8101

 eigenvalue-minimisations  :     0
 total energy-change (2. order) :-0.3534740E-02  (-0.1125958E-02)
 number of electron     216.0000000 magnetization 
 augmentation part       -0.3563744 magnetization 

 Free energy of the ion-electron system (eV)
  ---------------------------------------------------
  alpha Z        PSCENC =        59.93625244
  Ewald energy   TEWEN  =     32288.69155692
  -Hartree energ DENC   =    -39379.78023108
  -exchange      EXHF   =         0.00000000
  -V(xc)+E(xc)   XCENC  =       385.29413610
  PAW double counting   =     79047.86659486   -78761.17282432
  entropy T*S    EENTRO =        -0.00000000
  eigenvalues    EBANDS =     -2591.90447014
  atomic energy  EATOM  =      8557.41276814
  ---------------------------------------------------
  free energy    TOTEN  =      -393.65621706 eV

  energy without entropy =     -393.65621706  energy(sigma->0) =     -393.65621706


--------------------------------------------------------------------------------------------------------




--------------------------------------- Iteration      1(  15)  ---------------------------------------


    POTLOK:  cpu time    3.1305: real time    3.1546
    SETDIJ:  cpu time    0.0627: real time    0.0629
    TRIAL :  cpu time    0.8929: real time    0.9016
    CORREC:  cpu time    3.4806: real time    3.5082
    CHARGE:  cpu time    0.1176: real time    0.1188
    --------------------------------------------
      LOOP:  cpu time    7.7659: real time    7.8297

 eigenvalue-minimisations  :     0
 total energy-change (2. order) :-0.1125779E-02  (-0.4914421E-03)
 number of electron     216.0000000 magnetization 
 augmentation part       -0.3564462 magnetization 

 Free energy of the ion-electron system (eV)
  ---------------------------------------------------
  alpha Z        PSCENC =        59.93625244
  Ewald energy   TEWEN  =     32288.69155692
  -Hartree energ DENC   =    -39379.40367443
  -exchange      EXHF   =         0.00000000
  -V(xc)+E(xc)   XCENC  =       385.26849318
  PAW double counting   =     79009.97660035   -78723.28727550
  entropy T*S    EENTRO =        -0.00000000
  eigenvalues    EBANDS =     -2592.25206395
  atomic energy  EATOM  =      8557.41276814
  ---------------------------------------------------
  free energy    TOTEN  =      -393.65734284 eV

  energy without entropy =     -393.65734284  energy(sigma->0) =     -393.65734284


--------------------------------------------------------------------------------------------------------




--------------------------------------- Iteration      1(  16)  ---------------------------------------


    POTLOK:  cpu time    3.1294: real time    3.1536
    SETDIJ:  cpu time    0.0641: real time    0.0643
    TRIAL :  cpu time    0.8807: real time    0.8895
    CORREC:  cpu time    3.4933: real time    3.5207
    CHARGE:  cpu time    0.1167: real time    0.1179
    --------------------------------------------
      LOOP:  cpu time    7.7684: real time    7.8320

 eigenvalue-minimisations  :     0
 total energy-change (2. order) :-0.4906780E-03  (-0.2605754E-03)
 number of electron     216.0000000 magnetization 
 augmentation part       -0.3564793 magnetization 

 Free energy of the ion-electron system (eV)
  ---------------------------------------------------
  alpha Z        PSCENC =        59.93625244
  Ewald energy   TEWEN  =     32288.69155692
  -Hartree energ DENC   =    -39379.65551238
  -exchange      EXHF   =         0.00000000
  -V(xc)+E(xc)   XCENC  =       385.27952439
  PAW double counting   =     78965.05979556   -78678.37608225
  entropy T*S    EENTRO =        -0.00000000
  eigenvalues    EBANDS =     -2592.00613634
  atomic energy  EATOM  =      8557.41276814
  ---------------------------------------------------
  free energy    TOTEN  =      -393.65783352 eV

  energy without entropy =     -393.65783352  energy(sigma->0) =     -393.65783352


--------------------------------------------------------------------------------------------------------




--------------------------------------- Iteration      1(  17)  ---------------------------------------


    POTLOK:  cpu time    3.1295: real time    3.1530
    SETDIJ:  cpu time    0.0619: real time    0.0621
    TRIAL :  cpu time    0.8629: real time    0.8712
    CORREC:  cpu time    3.4740: real time    3.5010
    CHARGE:  cpu time    0.1157: real time    0.1167
    --------------------------------------------
      LOOP:  cpu time    7.7363: real time    7.7969

 eigenvalue-minimisations  :     0
 total energy-change (2. order) :-0.2597587E-03  (-0.1304883E-03)
 number of electron     216.0000000 magnetization 
 augmentation part       -0.3564497 magnetization 

 Free energy of the ion-electron system (eV)
  ---------------------------------------------------
  alpha Z        PSCENC =        59.93625244
  Ewald energy   TEWEN  =     32288.69155692
  -Hartree energ DENC   =    -39379.67524655
  -exchange      EXHF   =         0.00000000
  -V(xc)+E(xc)   XCENC  =       385.28056416
  PAW double counting   =     78919.72282531   -78633.03826630
  entropy T*S    EENTRO =        -0.00000000
  eigenvalues    EBANDS =     -2591.98854741
  atomic energy  EATOM  =      8557.41276814
  ---------------------------------------------------
  free energy    TOTEN  =      -393.65809328 eV

  energy without entropy =     -393.65809328  energy(sigma->0) =     -393.65809328


--------------------------------------------------------------------------------------------------------




--------------------------------------- Iteration      1(  18)  ---------------------------------------


    POTLOK:  cpu time    3.1310: real time    3.1540
    SETDIJ:  cpu time    0.0637: real time    0.0639
    TRIAL :  cpu time    0.8869: real time    0.8958
    CORREC:  cpu time    3.4904: real time    3.5179
    CHARGE:  cpu time    0.1164: real time    0.1175
    --------------------------------------------
      LOOP:  cpu time    7.8048: real time    7.8690

 eigenvalue-minimisations  :     0
 total energy-change (2. order) :-0.1302426E-03  (-0.4625222E-04)
 number of electron     216.0000000 magnetization 
 augmentation part       -0.3564872 magnetization 

 Free energy of the ion-electron system (eV)
  ---------------------------------------------------
  alpha Z        PSCENC =        59.93625244
  Ewald energy   TEWEN  =     32288.69155692
  -Hartree energ DENC   =    -39379.76919614
  -exchange      EXHF   =         0.00000000
  -V(xc)+E(xc)   XCENC  =       385.28395420
  PAW double counting   =     78904.36772212   -78617.68090267
  entropy T*S    EENTRO =        -0.00000000
  eigenvalues    EBANDS =     -2591.90037854
  atomic energy  EATOM  =      8557.41276814
  ---------------------------------------------------
  free energy    TOTEN  =      -393.65822352 eV

  energy without entropy =     -393.65822352  energy(sigma->0) =     -393.65822352


--------------------------------------------------------------------------------------------------------




--------------------------------------- Iteration      1(  19)  ---------------------------------------


    POTLOK:  cpu time    3.1422: real time    3.1660
    SETDIJ:  cpu time    0.0613: real time    0.0615
    TRIAL :  cpu time    0.8617: real time    0.8706
    CORREC:  cpu time    3.4859: real time    3.5194
    CHARGE:  cpu time    0.1172: real time    0.1183
    --------------------------------------------
      LOOP:  cpu time    7.7165: real time    7.8229

 eigenvalue-minimisations  :     0
 total energy-change (2. order) :-0.4629648E-04  (-0.1583988E-04)
 number of electron     216.0000000 magnetization 
 augmentation part       -0.3564817 magnetization 

 Free energy of the ion-electron system (eV)
  ---------------------------------------------------
  alpha Z        PSCENC =        59.93625244
  Ewald energy   TEWEN  =     32288.69155692
  -Hartree energ DENC   =    -39379.79964835
  -exchange      EXHF   =         0.00000000
  -V(xc)+E(xc)   XCENC  =       385.28412133
  PAW double counting   =     78916.78838235   -78630.09963018
  entropy T*S    EENTRO =        -0.00000000
  eigenvalues    EBANDS =     -2591.87207247
  atomic energy  EATOM  =      8557.41276814
  ---------------------------------------------------
  free energy    TOTEN  =      -393.65826982 eV

  energy without entropy =     -393.65826982  energy(sigma->0) =     -393.65826982


--------------------------------------------------------------------------------------------------------




--------------------------------------- Iteration      1(  20)  ---------------------------------------


    POTLOK:  cpu time    3.1429: real time    3.1668
    SETDIJ:  cpu time    0.0623: real time    0.0625
    TRIAL :  cpu time    0.8592: real time    0.8680
    CORREC:  cpu time    3.4800: real time    3.5079
    CHARGE:  cpu time    0.1166: real time    0.1179
    --------------------------------------------
      LOOP:  cpu time    7.7496: real time    7.8131

 eigenvalue-minimisations  :     0
 total energy-change (2. order) :-0.1592071E-04  (-0.5977996E-05)
 number of electron     216.0000000 magnetization 
 augmentation part       -0.3564695 magnetization 

 Free energy of the ion-electron system (eV)
  ---------------------------------------------------
  alpha Z        PSCENC =        59.93625244
  Ewald energy   TEWEN  =     32288.69155692
  -Hartree energ DENC   =    -39379.80931158
  -exchange      EXHF   =         0.00000000
  -V(xc)+E(xc)   XCENC  =       385.28478449
  PAW double counting   =     78931.61695648   -78644.92785422
  entropy T*S    EENTRO =        -0.00000000
  eigenvalues    EBANDS =     -2591.86343842
  atomic energy  EATOM  =      8557.41276814
  ---------------------------------------------------
  free energy    TOTEN  =      -393.65828574 eV

  energy without entropy =     -393.65828574  energy(sigma->0) =     -393.65828574


--------------------------------------------------------------------------------------------------------




--------------------------------------- Iteration      1(  21)  ---------------------------------------


    POTLOK:  cpu time    3.1260: real time    3.1685
    SETDIJ:  cpu time    0.0629: real time    0.0633
    TRIAL :  cpu time    0.8553: real time    0.8694
    CORREC:  cpu time    3.4815: real time    3.5156
    CHARGE:  cpu time    0.1170: real time    0.1181
    --------------------------------------------
      LOOP:  cpu time    7.6711: real time    7.7867

 eigenvalue-minimisations  :     0
 total energy-change (2. order) :-0.5983980E-05  (-0.2943286E-05)
 number of electron     216.0000000 magnetization 
 augmentation part       -0.3564485 magnetization 

 Free energy of the ion-electron system (eV)
  ---------------------------------------------------
  alpha Z        PSCENC =        59.93625244
  Ewald energy   TEWEN  =     32288.69155692
  -Hartree energ DENC   =    -39379.79629068
  -exchange      EXHF   =         0.00000000
  -V(xc)+E(xc)   XCENC  =       385.28432129
  PAW double counting   =     78939.69075532   -78653.00170109
  entropy T*S    EENTRO =        -0.00000000
  eigenvalues    EBANDS =     -2591.87595408
  atomic energy  EATOM  =      8557.41276814
  ---------------------------------------------------
  free energy    TOTEN  =      -393.65829172 eV

  energy without entropy =     -393.65829172  energy(sigma->0) =     -393.65829172


--------------------------------------------------------------------------------------------------------




--------------------------------------- Iteration      1(  22)  ---------------------------------------


    POTLOK:  cpu time    3.1557: real time    3.1797
    SETDIJ:  cpu time    0.0629: real time    0.0631
    TRIAL :  cpu time    0.8600: real time    0.8695
    CORREC:  cpu time    3.4716: real time    3.5016
    CHARGE:  cpu time    0.1170: real time    0.1181
    --------------------------------------------
      LOOP:  cpu time    7.6765: real time    7.7537

 eigenvalue-minimisations  :     0
 total energy-change (2. order) :-0.2926856E-05  (-0.1316994E-05)
 number of electron     216.0000000 magnetization 
 augmentation part       -0.3564362 magnetization 

 Free energy of the ion-electron system (eV)
  ---------------------------------------------------
  alpha Z        PSCENC =        59.93625244
  Ewald energy   TEWEN  =     32288.69155692
  -Hartree energ DENC   =    -39379.79260904
  -exchange      EXHF   =         0.00000000
  -V(xc)+E(xc)   XCENC  =       385.28417975
  PAW double counting   =     78942.85389225   -78656.16508556
  entropy T*S    EENTRO =        -0.00000000
  eigenvalues    EBANDS =     -2591.87924955
  atomic energy  EATOM  =      8557.41276814
  ---------------------------------------------------
  free energy    TOTEN  =      -393.65829465 eV

  energy without entropy =     -393.65829465  energy(sigma->0) =     -393.65829465


--------------------------------------------------------------------------------------------------------




--------------------------------------- Iteration      1(  23)  ---------------------------------------


    POTLOK:  cpu time    3.1311: real time    3.1554
    SETDIJ:  cpu time    0.0638: real time    0.0640
    TRIAL :  cpu time    0.8670: real time    0.8760
    CORREC:  cpu time    3.4752: real time    3.5028
    CHARGE:  cpu time    0.1172: real time    0.1184
    --------------------------------------------
      LOOP:  cpu time    7.7107: real time    7.7751

 eigenvalue-minimisations  :     0
 total energy-change (2. order) :-0.1325927E-05  (-0.5274793E-06)
 number of electron     216.0000000 magnetization 
 augmentation part       -0.3564391 magnetization 

 Free energy of the ion-electron system (eV)
  ---------------------------------------------------
  alpha Z        PSCENC =        59.93625244
  Ewald energy   TEWEN  =     32288.69155692
  -Hartree energ DENC   =    -39379.78725700
  -exchange      EXHF   =         0.00000000
  -V(xc)+E(xc)   XCENC  =       385.28412992
  PAW double counting   =     78943.10043085   -78656.41172704
  entropy T*S    EENTRO =        -0.00000000
  eigenvalues    EBANDS =     -2591.88445022
  atomic energy  EATOM  =      8557.41276814
  ---------------------------------------------------
  free energy    TOTEN  =      -393.65829598 eV

  energy without entropy =     -393.65829598  energy(sigma->0) =     -393.65829598


--------------------------------------------------------------------------------------------------------




--------------------------------------- Iteration      1(  24)  ---------------------------------------


    POTLOK:  cpu time    3.1491: real time    3.1734
    SETDIJ:  cpu time    0.0640: real time    0.0643
    TRIAL :  cpu time    0.8596: real time    0.8685
    CORREC:  cpu time    3.4856: real time    3.5138
    CHARGE:  cpu time    0.1175: real time    0.1186
    --------------------------------------------
      LOOP:  cpu time    7.7180: real time    7.7874

 eigenvalue-minimisations  :     0
 total energy-change (2. order) :-0.5387410E-06  (-0.2452167E-06)
 number of electron     216.0000000 magnetization 
 augmentation part       -0.3564430 magnetization 

 Free energy of the ion-electron system (eV)
  ---------------------------------------------------
  alpha Z        PSCENC =        59.93625244
  Ewald energy   TEWEN  =     32288.69155692
  -Hartree energ DENC   =    -39379.77972955
  -exchange      EXHF   =         0.00000000
  -V(xc)+E(xc)   XCENC  =       385.28389449
  PAW double counting   =     78942.37596096   -78655.68717821
  entropy T*S    EENTRO =        -0.00000000
  eigenvalues    EBANDS =     -2591.89182171
  atomic energy  EATOM  =      8557.41276814
  ---------------------------------------------------
  free energy    TOTEN  =      -393.65829652 eV

  energy without entropy =     -393.65829652  energy(sigma->0) =     -393.65829652


--------------------------------------------------------------------------------------------------------




--------------------------------------- Iteration      1(  25)  ---------------------------------------


    POTLOK:  cpu time    3.1118: real time    3.1453
    SETDIJ:  cpu time    0.0629: real time    0.0632
    TRIAL :  cpu time    0.8589: real time    0.8698
    CORREC:  cpu time    3.4716: real time    3.5051
    CHARGE:  cpu time    0.1170: real time    0.1182
    --------------------------------------------
      LOOP:  cpu time    7.6542: real time    7.7755

 eigenvalue-minimisations  :     0
 total energy-change (2. order) :-0.2429588E-06  (-0.1509509E-06)
 number of electron     216.0000000 magnetization 
 augmentation part       -0.3564486 magnetization 

 Free energy of the ion-electron system (eV)
  ---------------------------------------------------
  alpha Z        PSCENC =        59.93625244
  Ewald energy   TEWEN  =     32288.69155692
  -Hartree energ DENC   =    -39379.78051388
  -exchange      EXHF   =         0.00000000
  -V(xc)+E(xc)   XCENC  =       385.28396489
  PAW double counting   =     78941.39596346   -78654.70717201
  entropy T*S    EENTRO =        -0.00000000
  eigenvalues    EBANDS =     -2591.89111673
  atomic energy  EATOM  =      8557.41276814
  ---------------------------------------------------
  free energy    TOTEN  =      -393.65829676 eV

  energy without entropy =     -393.65829676  energy(sigma->0) =     -393.65829676


--------------------------------------------------------------------------------------------------------




--------------------------------------- Iteration      1(  26)  ---------------------------------------


    POTLOK:  cpu time    3.1352: real time    3.1586
    SETDIJ:  cpu time    0.0623: real time    0.0625
    TRIAL :  cpu time    0.8634: real time    0.8724
    CORREC:  cpu time    3.5160: real time    3.5436
    CHARGE:  cpu time    0.1187: real time    0.1198
    --------------------------------------------
      LOOP:  cpu time    7.7207: real time    7.8230

 eigenvalue-minimisations  :     0
 total energy-change (2. order) :-0.1074368E-06  (-0.7366852E-07)
 number of electron     216.0000000 magnetization 
 augmentation part       -0.3564486 magnetization 

 Free energy of the ion-electron system (eV)
  ---------------------------------------------------
  alpha Z        PSCENC =        59.93625244
  Ewald energy   TEWEN  =     32288.69155692
  -Hartree energ DENC   =    -39379.78159429
  -exchange      EXHF   =         0.00000000
  -V(xc)+E(xc)   XCENC  =       385.28399493
  PAW double counting   =     78940.25645829   -78653.56769197
  entropy T*S    EENTRO =        -0.00000000
  eigenvalues    EBANDS =     -2591.89004134
  atomic energy  EATOM  =      8557.41276814
  ---------------------------------------------------
  free energy    TOTEN  =      -393.65829687 eV

  energy without entropy =     -393.65829687  energy(sigma->0) =     -393.65829687


--------------------------------------------------------------------------------------------------------




--------------------------------------- Iteration      1(  27)  ---------------------------------------


    POTLOK:  cpu time    3.1428: real time    3.1666
    SETDIJ:  cpu time    0.0641: real time    0.0643
    TRIAL :  cpu time    0.8599: real time    0.8687
    CORREC:  cpu time    3.4923: real time    3.5205
    EDDIAG:  cpu time    0.3235: real time    0.3276
    CHARGE:  cpu time    0.1187: real time    0.1198
    --------------------------------------------
      LOOP:  cpu time    8.0474: real time    8.1145

 eigenvalue-minimisations  :     0
 total energy-change (2. order) :-0.7420022E-07  (-0.3050499E-07)
 number of electron     216.0000000 magnetization 
 augmentation part       -0.3564482 magnetization 

 Free energy of the ion-electron system (eV)
  ---------------------------------------------------
  alpha Z        PSCENC =        59.93625244
  Ewald energy   TEWEN  =     32288.69155692
  -Hartree energ DENC   =    -39379.78117949
  -exchange      EXHF   =         0.00000000
  -V(xc)+E(xc)   XCENC  =       385.28396450
  PAW double counting   =     78940.33323790   -78653.64447467
  entropy T*S    EENTRO =        -0.00000000
  eigenvalues    EBANDS =     -2591.89042269
  atomic energy  EATOM  =      8557.41276814
  ---------------------------------------------------
  free energy    TOTEN  =      -393.65829694 eV

  energy without entropy =     -393.65829694  energy(sigma->0) =     -393.65829694


--------------------------------------------------------------------------------------------------------


  average scaling for gradient   0.8297


 average (electrostatic) potential at core
  the test charge radii are     0.5770  0.5955
  (the norm of the test charge is              1.0000)
       1 -86.4377       2 -86.4361       3 -86.4401       4 -86.4436       5 -86.4338
       6 -86.4326       7 -86.4397       8 -86.4358       9 -86.4356      10 -86.4394
[...]
      16 -86.4333      17 -86.4348      18 -86.4362      19 -86.4375      20 -86.4350
      21 -86.4324      22 -86.4318      23 -86.4455      24 -86.4450      25 -86.4324
      26 -86.4335      27 -86.4362      28 -86.4392      29 -86.4326      30 -86.4325
      31 -86.4418      32 -86.4387      33 -86.4345      34 -86.4333      35 -86.4332
      36 -86.4341      37 -86.4358      38 -86.4369      39 -86.4371      40 -86.4365
      41 -86.4366      42 -86.4378      43 -86.4349      44 -86.4378      45 -86.4325
      46 -86.4330      47 -86.4339      48 -86.4329      49 -86.4365      50 -86.4352
      51 -90.7348      52-120.5006      53-120.5009
 
 
 
 E-fermi :  -4.0315     XC(G=0):  -2.7796     alpha+bet : -2.1113

 Fermi energy:        -4.0314591962

 k-point     1 :       0.0000    0.0000    0.0000
  band No.  band energies     occupation 
      1     -27.5672      2.00000
      2     -26.6180      2.00000
      3     -22.0462      2.00000
      4     -21.1212      2.00000
      5     -21.1201      2.00000
      6     -21.1188      2.00000
      7     -21.1176      2.00000
      8     -21.1163      2.00000
      9     -21.1162      2.00000
     10     -19.3034      2.00000
     11     -19.3032      2.00000
     12     -19.3031      2.00000
     13     -19.3028      2.00000
     14     -19.3027      2.00000
     15     -19.3024      2.00000
     16     -18.4232      2.00000
     17     -18.4230      2.00000
     18     -18.4226      2.00000
     19     -18.4223      2.00000
     20     -18.4222      2.00000
     21     -18.4219      2.00000
     22     -16.3278      2.00000
     23     -16.3277      2.00000
     24     -16.3271      2.00000
     25     -16.3267      2.00000
     26     -16.3252      2.00000
     27     -16.3250      2.00000
     28     -15.2827      2.00000
     29     -15.2825      2.00000
     30     -15.2823      2.00000
     31     -15.2822      2.00000
     32     -15.2814      2.00000
     33     -15.2813      2.00000
     34     -13.9705      2.00000
     35     -13.9703      2.00000
     36     -13.9698      2.00000
     37     -13.9696      2.00000
     38     -13.9696      2.00000
     39     -13.9690      2.00000
     40     -12.4481      2.00000
     41     -11.6737      2.00000
     42     -11.6736      2.00000
     43     -11.6731      2.00000
     44     -11.6731      2.00000
     45     -11.6723      2.00000
     46     -11.6722      2.00000
     47     -11.5060      2.00000
     48     -11.5060      2.00000
     49     -11.5051      2.00000
     50     -11.5050      2.00000
     51     -11.5038      2.00000
     52     -11.5036      2.00000
     53     -11.3365      2.00000
     54     -11.1697      2.00000
     55     -11.1678      2.00000
     56     -10.2249      2.00000
     57     -10.1545      2.00000
     58     -10.1543      2.00000
     59     -10.1531      2.00000
     60     -10.1527      2.00000
     61     -10.1525      2.00000
     62     -10.1524      2.00000
     63      -9.1186      2.00000
     64      -9.1162      2.00000
     65      -9.1129      2.00000
     66      -9.1121      2.00000
     67      -9.1098      2.00000
     68      -9.1098      2.00000
     69      -8.9729      2.00000
     70      -8.9717      2.00000
     71      -8.9715      2.00000
     72      -8.9705      2.00000
     73      -8.9702      2.00000
     74      -8.9700      2.00000
     75      -8.9162      2.00000
     76      -8.9160      2.00000
     77      -8.9159      2.00000
     78      -8.9156      2.00000
     79      -8.9148      2.00000
     80      -8.9141      2.00000
     81      -7.6768      2.00000
     82      -7.6753      2.00000
     83      -7.3627      2.00000
     84      -7.3619      2.00000
     85      -7.3615      2.00000
     86      -7.3610      2.00000
     87      -7.3591      2.00000
     88      -7.3590      2.00000
     89      -6.9974      2.00000
     90      -6.9972      2.00000
     91      -6.9958      2.00000
     92      -6.9954      2.00000
     93      -6.9949      2.00000
     94      -6.9946      2.00000
     95      -6.1085      2.00000
     96      -6.1072      2.00000
     97      -6.1069      2.00000
     98      -6.1059      2.00000
     99      -6.1055      2.00000
    100      -6.1048      2.00000
    101      -5.9385      2.00000
    102      -5.9363      2.00000
    103      -4.1421      2.00000
    104      -4.1417      2.00000
    105      -4.1412      2.00000
    106      -4.1405      2.00000
    107      -4.1379      2.00000
    108      -4.1377      2.00000
    109      -1.3564      0.00000
    110      -1.3561      0.00000
    111      -1.3537      0.00000
    112      -1.3535      0.00000
    113      -1.3531      0.00000
    114      -1.3529      0.00000
    115      -0.2923      0.00000
    116       0.3343      0.00000
    117       0.4896      0.00000
    118       0.4906      0.00000
    119       0.4917      0.00000
    120       0.4931      0.00000
    121       0.4944      0.00000
    122       0.4960      0.00000
    123       0.7113      0.00000
    124       0.7722      0.00000
    125       1.0248      0.00000
    126       1.1292      0.00000
    127       1.1801      0.00000
    128       1.2477      0.00000
    129       1.2515      0.00000
    130       1.2649      0.00000
    131       1.3471      0.00000
    132       1.8457      0.00000
    133       2.0149      0.00000
    134       2.1115      0.00000
    135       2.2021      0.00000
    136       2.2025      0.00000


--------------------------------------------------------------------------------------------------------


 soft charge-density along one line, spin component           1
         0         1         2         3         4         5         6         7         8         9
 total charge-density along one line
 
 pseudopotential strength for first ion, spin component:           1
 12.606  21.216   0.000   0.000  -0.000   0.000   0.000  -0.000
 21.216  35.704   0.000   0.000  -0.000   0.000   0.000  -0.000
  0.000   0.000  -3.322  -0.000   0.000  -5.952  -0.000   0.000
  0.000   0.000  -0.000  -3.357  -0.000  -0.000  -6.015  -0.000
 -0.000  -0.000   0.000  -0.000  -3.322   0.000  -0.000  -5.952
  0.000   0.000  -5.952  -0.000   0.000 -10.645  -0.000   0.000
  0.000   0.000  -0.000  -6.015  -0.000  -0.000 -10.755  -0.000
 -0.000  -0.000   0.000  -0.000  -5.952   0.000  -0.000 -10.645
 total augmentation occupancy for first ion, spin component:           1
  6.242  -2.004  -0.000  -0.002  -0.000   0.000   0.001  -0.000
 -2.004   0.691   0.000   0.001  -0.000  -0.000  -0.000   0.000
 -0.000   0.000   5.992  -0.007   0.000  -1.878   0.003  -0.000
 -0.002   0.001  -0.007   2.310  -0.000   0.003  -0.483   0.000
 -0.000  -0.000   0.000  -0.000   5.992  -0.000   0.000  -1.878
  0.000  -0.000  -1.878   0.003  -0.000   0.606  -0.001   0.000
  0.001  -0.000   0.003  -0.483   0.000  -0.001   0.111  -0.000
 -0.000   0.000  -0.000   0.000  -1.878   0.000  -0.000   0.606


------------------------ aborting loop because EDIFF is reached ----------------------------------------


    FORLOC:  cpu time    0.0518: real time    0.0522
    FORNL :  cpu time    0.6761: real time    0.6802
    FORCOR:  cpu time    3.1978: real time    3.2237
    OFIELD:  cpu time    0.0014: real time    0.0014

 VOLUME and BASIS-vectors are now :
 -----------------------------------------------------------------------------
  energy-cutoff  :     1000.00
  volume of cell :     2631.08
      direct lattice vectors                 reciprocal lattice vectors
    12.325000000  0.000000000  0.000000000     0.081135903  0.046843835  0.000000000
    -6.162500000 10.673763102  0.000000000     0.000000000  0.093687670  0.000000000
     0.000000000  0.000000000 20.000000000     0.000000000  0.000000000  0.050000000

  length of vectors
    12.325000000 12.325000000 20.000000000     0.093687670  0.093687670  0.050000000


 FORCES acting on ions:
    Electron-Ion                     Ewald-Force                    Non-Local-Force
 -----------------------------------------------------------------------------------------------
   0.515E+01 0.448E+01 0.204E+02   -.516E+01 -.448E+01 -.204E+02   0.967E-02 -.142E-02 0.831E-02
   0.768E+01 0.374E+01 0.244E+02   -.770E+01 -.373E+01 -.244E+02   0.122E-01 -.524E-02 -.602E-02
   0.338E+01 0.899E+01 0.276E+02   -.338E+01 -.900E+01 -.276E+02   -.114E-02 0.226E-01 0.969E-02
   0.462E+01 0.669E+01 0.367E+02   -.463E+01 -.670E+01 -.368E+02   0.213E-01 0.567E-02 0.103E-01
   0.551E+01 0.130E+01 0.206E+02   -.551E+01 -.130E+01 -.206E+02   0.375E-02 -.961E-02 -.855E-03
   0.568E+01 -.108E+01 0.209E+02   -.568E+01 0.109E+01 -.209E+02   -.731E-02 0.944E-03 -.966E-02
   0.859E+01 0.317E+01 0.338E+02   -.861E+01 -.316E+01 -.338E+02   0.256E-01 -.262E-01 0.194E-02
   0.832E+01 -.296E+01 0.352E+02   -.833E+01 0.297E+01 -.352E+02   0.587E-02 -.136E-01 -.882E-02
   -.399E+01 0.810E+01 0.278E+02   0.400E+01 -.811E+01 -.278E+02   -.878E-02 -.440E-02 -.913E-02
   -.623E+01 0.524E+01 0.357E+02   0.625E+01 -.526E+01 -.357E+02   -.408E-01 0.252E-01 0.101E-01
   0.142E+01 -.137E+01 0.178E+02   -.141E+01 0.137E+01 -.177E+02   0.769E-03 -.149E-02 -.401E-02
   0.120E+01 -.999E+00 0.168E+02   -.120E+01 0.998E+00 -.168E+02   -.107E-01 0.478E-02 0.311E-02
   0.333E+01 -.718E+01 0.383E+02   -.335E+01 0.720E+01 -.383E+02   0.416E-01 -.185E-01 0.579E-02
   0.181E+01 -.899E+01 0.286E+02   -.183E+01 0.900E+01 -.286E+02   0.121E-01 -.103E-02 -.200E-01
   -.495E+01 0.307E+01 0.200E+02   0.495E+01 -.307E+01 -.200E+02   0.763E-02 -.348E-02 0.442E-03
   -.689E+01 0.202E+01 0.220E+02   0.689E+01 -.203E+01 -.220E+02   -.602E-02 0.910E-02 -.129E-01
   -.850E+00 -.338E+00 0.162E+02   0.858E+00 0.334E+00 -.162E+02   -.453E-02 0.175E-02 0.999E-03
   0.410E+00 0.299E+01 0.170E+02   -.406E+00 -.300E+01 -.170E+02   -.590E-02 0.357E-02 0.929E-02
   -.135E+01 -.825E+01 0.239E+02   0.134E+01 0.826E+01 -.239E+02   0.120E-01 -.649E-02 0.188E-02
   -.684E+00 -.452E+01 0.184E+02   0.677E+00 0.452E+01 -.184E+02   0.390E-02 -.447E-02 -.178E-02
   0.770E+01 -.339E+01 0.258E+02   -.770E+01 0.340E+01 -.257E+02   0.293E-02 -.641E-02 -.278E-01
   0.502E+01 -.421E+01 0.220E+02   -.502E+01 0.421E+01 -.220E+02   -.660E-02 0.592E-02 -.107E-01
   -.160E+01 0.311E+01 0.424E+02   0.160E+01 -.312E+01 -.424E+02   -.173E-01 0.172E-01 0.372E-01
   -.224E+01 -.489E+01 0.414E+02   0.223E+01 0.490E+01 -.414E+02   0.160E-01 -.245E-01 0.217E-01
   0.258E+01 -.105E+01 0.178E+02   -.257E+01 0.105E+01 -.178E+02   -.599E-04 -.118E-02 -.807E-02
   0.555E+00 0.228E+01 0.179E+02   -.551E+00 -.228E+01 -.179E+02   -.898E-02 0.550E-02 0.182E-02
   -.911E+01 0.124E+01 0.296E+02   0.912E+01 -.125E+01 -.296E+02   0.256E-03 0.134E-01 -.484E-02
   -.869E+01 -.349E+01 0.279E+02   0.871E+01 0.349E+01 -.279E+02   -.197E-01 0.135E-01 0.595E-02
   0.300E+01 -.603E+01 0.227E+02   -.301E+01 0.603E+01 -.227E+02   0.981E-02 0.981E-03 -.145E-01
   0.267E+00 -.248E+01 0.188E+02   -.272E+00 0.248E+01 -.188E+02   -.229E-02 0.313E-02 -.717E-02
   -.653E+01 -.686E+01 0.322E+02   0.654E+01 0.687E+01 -.322E+02   -.213E-01 -.134E-01 0.433E-02
   -.429E+01 -.791E+01 0.249E+02   0.429E+01 0.792E+01 -.249E+02   0.668E-03 -.103E-01 0.898E-02
   0.332E+00 0.132E+01 0.167E+02   -.336E+00 -.132E+01 -.167E+02   0.858E-02 -.611E-02 0.499E-02
   0.873E+00 0.130E+01 0.177E+02   -.877E+00 -.130E+01 -.177E+02   -.731E-03 0.267E-02 -.467E-02
   -.348E+01 0.521E+00 0.188E+02   0.348E+01 -.523E+00 -.188E+02   0.403E-02 -.960E-03 0.139E-02
   -.306E+01 -.127E+01 0.185E+02   0.306E+01 0.127E+01 -.185E+02   -.824E-02 0.469E-02 0.452E-03
   -.600E+01 -.312E+01 0.206E+02   0.601E+01 0.311E+01 -.206E+02   -.857E-02 0.190E-02 0.289E-02
   -.373E+01 -.299E+01 0.182E+02   0.373E+01 0.299E+01 -.182E+02   -.806E-02 0.173E-02 0.995E-02
   -.343E+01 -.443E+01 0.192E+02   0.343E+01 0.443E+01 -.192E+02   -.683E-02 -.238E-02 0.709E-02
   -.518E+00 -.112E+01 0.171E+02   0.518E+00 0.112E+01 -.171E+02   0.272E-02 -.969E-03 0.846E-02
   0.129E+01 0.317E+01 0.176E+02   -.129E+01 -.318E+01 -.176E+02   -.468E-02 0.503E-02 0.817E-02
   0.404E+01 0.632E+01 0.213E+02   -.404E+01 -.633E+01 -.213E+02   0.425E-02 0.340E-02 0.119E-01
   0.350E+00 0.542E+01 0.189E+02   -.342E+00 -.543E+01 -.189E+02   -.462E-02 0.541E-02 0.476E-03
   -.821E-01 0.884E+01 0.249E+02   0.924E-01 -.885E+01 -.249E+02   -.156E-01 0.826E-02 0.677E-02
   -.102E+01 0.199E+01 0.186E+02   0.103E+01 -.199E+01 -.186E+02   0.247E-02 -.292E-02 -.376E-02
   -.405E+01 0.503E+01 0.215E+02   0.406E+01 -.503E+01 -.215E+02   -.106E-01 0.249E-02 -.911E-02
   -.841E+00 -.223E+01 0.176E+02   0.837E+00 0.223E+01 -.176E+02   0.101E-01 -.255E-02 0.301E-02
   -.203E+01 0.783E+00 0.170E+02   0.202E+01 -.781E+00 -.170E+02   -.244E-03 0.221E-02 -.702E-02
   0.199E+00 -.139E+01 0.169E+02   -.202E+00 0.139E+01 -.169E+02   0.665E-02 -.409E-02 0.602E-02
   0.220E+01 0.159E+01 0.170E+02   -.221E+01 -.158E+01 -.170E+02   0.423E-02 0.868E-03 0.298E-02
   0.366E-01 -.153E-01 -.290E+03   -.356E-01 0.154E-01 0.290E+03   -.338E-02 0.237E-02 -.116E-01
   -.229E+03 0.156E+03 -.447E+03   0.279E+03 -.190E+03 0.450E+03   -.513E+02 0.349E+02 -.347E+01
   0.229E+03 -.156E+03 -.427E+03   -.279E+03 0.190E+03 0.424E+03   0.513E+02 -.349E+02 0.306E+01
 -----------------------------------------------------------------------------------------------
   -.109E-02 0.959E-02 0.375E+00   0.000E+00 0.568E-13 0.171E-12   0.155E-02 -.991E-02 -.376E+00
 
 
 POSITION                                       TOTAL-FORCE (eV/Angst)
 -----------------------------------------------------------------------------------
     11.98348      0.00342      0.01417         0.002732     -0.001107     -0.000742
     -0.34154      1.42665      0.01100        -0.002622      0.000025     -0.002634
      2.12355      0.00315      0.01249        -0.001482      0.007059     -0.004471
      2.12326      1.42653      0.00641         0.009736     -0.000309     -0.002919
     10.75099      2.13819      0.01213         0.000394     -0.004814      0.000409
     -1.57382      3.56123      0.01110        -0.007519      0.005015     -0.001280
      0.89078      2.13854      0.00548         0.006425     -0.016015      0.004704
      0.89099      3.56147      0.00181        -0.013467     -0.000920      0.013704
      4.58864      0.00346      0.01135         0.004687     -0.016666     -0.002408
      4.58894      1.42623      0.00646        -0.017947      0.010013      0.017041
      9.51854      4.27281      0.01369         0.006852     -0.003449      0.000344
     -2.80632      5.69591      0.01434        -0.006164      0.003237      0.001085
      2.12300      4.27302      0.00000         0.019663     -0.002646      0.023579
      2.12335      5.69594      0.00581        -0.001865      0.010390     -0.001798
      7.05344      0.00333      0.01399         0.008228     -0.004555      0.000131
      7.05353      1.42635      0.01368        -0.001381      0.004035     -0.003266
      8.28610      6.40752      0.01601         0.003401     -0.001555     -0.000513
     -4.03885      7.83070      0.01636        -0.001860      0.001027      0.000231
      3.35586      6.40753      0.01007         0.003987      0.000640     -0.001009
      3.35599      7.83072      0.01320        -0.003563      0.000654     -0.000387
     -0.34146      4.27290      0.00723        -0.002152     -0.000732     -0.003987
     -0.34138      5.69591      0.00946        -0.008239      0.005350     -0.000790
      3.35624      2.13791      0.00222        -0.011074      0.009363      0.024414
      3.35573      3.56155      0.00139         0.011828     -0.012335      0.015632
     -1.57395      6.40758      0.01311         0.006190     -0.004180     -0.000550
     -1.57385      7.83068      0.01438        -0.004474      0.003777      0.000441
      5.82093      2.13784      0.01033         0.017198      0.004092     -0.001499
      5.82114      3.56097      0.01156        -0.004272      0.006722     -0.002437
      0.89092      6.40755      0.00907         0.003857      0.001702     -0.001890
      0.89106      7.83068      0.01235        -0.006947      0.003091      0.000420
      4.58871      4.27293      0.00850        -0.009121     -0.004323     -0.007484
      4.58852      5.69606      0.01149         0.001881      0.000874     -0.002936
      9.51845      0.00337      0.01490         0.004409     -0.004431      0.000519
      9.51855      1.42644      0.01438        -0.005043      0.005781     -0.000184
      8.28593      2.13803      0.01453         0.005715     -0.003668      0.000880
      8.28613      3.56115      0.01464        -0.004142      0.001776      0.000327
      7.05356      4.27269      0.01457         0.003898     -0.000945     -0.000088
      7.05362      5.69588      0.01553        -0.002267      0.001199      0.000196
      5.82112      6.40755      0.01489        -0.002246      0.001989      0.000232
      5.82102      7.83073      0.01579         0.002628      0.000452      0.000030
      7.05363      8.54227      0.01631        -0.004471      0.000688      0.001375
     -5.27149      9.96549      0.01495        -0.000658     -0.002633     -0.001502
     -2.80638      8.54234      0.01558         0.003537     -0.002081     -0.000755
     -2.80627      9.96553      0.01362        -0.004894     -0.000457     -0.002980
     -0.34149      8.54239      0.01378         0.005661     -0.004062      0.000449
     -0.34138      9.96550      0.01354        -0.005174      0.000248     -0.000798
      2.12343      8.54232      0.01336         0.005468     -0.001520      0.001086
      2.12354      9.96544      0.01469        -0.005888      0.004076     -0.001771
      4.58846      8.54235      0.01505         0.003421     -0.002782      0.001161
      4.58853      9.96550      0.01517        -0.003398      0.003241      0.000491
      3.04930      2.68154      4.71937        -0.002344      0.002467      0.002922
      4.02070      2.02068      4.78379        -0.474643      0.322535     -0.058987
      2.07767      3.34267      4.65992         0.477520     -0.325334     -0.001736
 -----------------------------------------------------------------------------------
    total drift:                                0.000466     -0.000323     -0.000736


--------------------------------------------------------------------------------------------------------



  FREE ENERGIE OF THE ION-ELECTRON SYSTEM (eV)
  ---------------------------------------------------
  free  energy   TOTEN  =      -393.65829694 eV

  energy  without entropy=     -393.65829694  energy(sigma->0) =     -393.65829694
 


--------------------------------------------------------------------------------------------------------


    POTLOK:  cpu time    3.1925: real time    3.2177


--------------------------------------------------------------------------------------------------------


     LOOP+:  cpu time  212.0002: real time  214.5109
    4ORBIT:  cpu time    0.0000: real time    0.0000

 total amount of memory used by VASP MPI-rank0    85439. kBytes
=======================================================================

   base      :      30000. kBytes
   nonl-proj :       6586. kBytes
   fftplans  :      14299. kBytes
   grid      :      23511. kBytes
   one-center:          6. kBytes
   wavefun   :      11037. kBytes
 
  
  
 General timing and accounting informations for this job:
 ========================================================
  
                  Total CPU time used (sec):      248.492
                            User time (sec):      227.636
                          System time (sec):       20.855
                         Elapsed time (sec):      252.843
  
                   Maximum memory used (kb):      675952.
                   Average memory used (kb):          N/A
  
                          Minor page faults:       357895
                          Major page faults:           83
                 Voluntary context switches:         3594
