 vasp.6.2.1 16May21 (build Nov 06 2021 14:46:37) complex                        
  
 executed on             LinuxIFC date 2025.04.16  18:40:12
 running on  112 total cores
 distrk:  each k-point on  112 cores,    1 groups
 distr:  one band on NCORE=  28 cores,    4 groups


--------------------------------------------------------------------------------------------------------


 INCAR:
   NPAR = 4
   ALGO = Conjugate
   ISMEAR = 0
   SIGMA = 0.01
   PREC = Accurate
   EDIFF = 1E-7
   ENCUT = 1000
   ISIF = 0
   GGA = ML
   LUSE_VDW = .TRUE.
   ZAB_VDW = -1.8867
   AGGAC = 0.0000
   LASPH = .TRUE.
   SYMPREC = 1E-7
   LWAVE = .FALSE.
   LCHARGE = .FALSE.

 POTCAR:    PAW_PBE C_h 06Feb2004                 
 POTCAR:    PAW_PBE O_h 06Feb2004                 
 -----------------------------------------------------------------------------
|                                                                             |
|           W    W    AA    RRRRR   N    N  II  N    N   GGGG   !!!           |
|           W    W   A  A   R    R  NN   N  II  NN   N  G    G  !!!           |
|           W    W  A    A  R    R  N N  N  II  N N  N  G       !!!           |
|           W WW W  AAAAAA  RRRRR   N  N N  II  N  N N  G  GGG   !            |
|           WW  WW  A    A  R   R   N   NN  II  N   NN  G    G                |
|           W    W  A    A  R    R  N    N  II  N    N   GGGG   !!!           |
|                                                                             |
|     For optimal performance we recommend to set                             |
|       NCORE = 2 up to number-of-cores-per-socket                            |
|     NCORE specifies how many cores store one orbital (NPAR=cpu/NCORE).      |
|     This setting can greatly improve the performance of VASP for DFT.       |
|     The default, NCORE=1 might be grossly inefficient on modern             |
|     multi-core architectures or massively parallel machines. Do your        |
|     own testing! More info at https://www.vasp.at/wiki/index.php/NCORE      |
|     Unfortunately you need to use the default for GW and RPA                |
|     calculations (for HF NCORE is supported but not extensively tested      |
|     yet).                                                                   |
|                                                                             |
 -----------------------------------------------------------------------------

 -----------------------------------------------------------------------------
|                                                                             |
|               ----> ADVICE to this user running VASP <----                  |
|                                                                             |
|     You have switched on vdW-DFT.                                           |
|     This routine was written and supplied by Jiri Klimes. We recommend      |
|     that you carefully read and cite the following publications:            |
|       J. Klimes, D.R. Bowler, A. Michelides                                 |
|          J. Phys.: Cond Matt. 22 022201 (2010)                              |
|       J. Klimes, D.R. Bowler, A. Michelides                                 |
|          Phys. Rev. B. 83, 195131 (2011)                                    |
|     and references therein.                                                 |
|                                                                             |
 -----------------------------------------------------------------------------

 POTCAR:    PAW_PBE C_h 06Feb2004                 
   VRHFIN =C: s2p2                                                                                  
   LEXCH  = PE                                                                                      
   EATOM  =   147.1560 eV,   10.8157 Ry                                                             
                                                                                                    
   TITEL  = PAW_PBE C_h 06Feb2004                                                                   
   LULTRA =        F    use ultrasoft PP ?                                                          
   IUNSCR =        1    unscreen: 0-lin 1-nonlin 2-no                                               
   RPACOR =    0.800    partial core radius                                                         
   POMASS =   12.011; ZVAL   =    4.000    mass and valenz                                          
   RCORE  =    1.100    outmost cutoff radius                                                       
   RWIGS  =    1.630; RWIGS  =    0.863    wigner-seitz radius (au A)                               
   ENMAX  =  700.000; ENMIN  =  500.000 eV                                                          
   ICORE  =        2    local potential                                                             
   LCOR   =        T    correct aug charges                                                         
   LPAW   =        T    paw PP                                                                      
   EAUG   =  946.768                                                                                
   DEXC   =    0.000                                                                                
   RMAX   =    1.128    core radius for proj-oper                                                   
   RAUG   =    1.300    factor for augmentation sphere                                              
   RDEP   =    1.162    radius for radial grids                                                     
   RDEPT  =    1.088    core radius for aug-charge                                                  
                                                                                                    
   Atomic configuration                                                                             
    4 entries                                                                                       
     n  l   j            E        occ.                                                              
     1  0  0.50      -273.3789   2.0000                                                             
     2  0  0.50       -13.7508   2.0000                                                             
     2  1  0.50        -5.2854   2.0000                                                             
     3  2  1.50        -5.4423   0.0000                                                             
   Description                                                                                      
     l       E           TYP  RCUT    TYP  RCUT                                                     
     0    -13.7508458     23  1.100                                                                 
     0     -8.2022199     23  1.100                                                                 
     1     -5.2854383     23  1.100                                                                 
     1      1.1560700     23  1.100                                                                 
     2     -5.4423304      7  1.100                                                                 
  local pseudopotential read in
  partial core-charges read in
  partial kinetic energy density read in
  atomic valenz-charges read in
  non local Contribution for L=           0  read in
    real space projection operators read in
  non local Contribution for L=           0  read in
    real space projection operators read in
  non local Contribution for L=           1  read in
    real space projection operators read in
  non local Contribution for L=           1  read in
    real space projection operators read in
    PAW grid and wavefunctions read in
 
   number of l-projection  operators is LMAX  =           4
   number of lm-projection operators is LMMAX =           8
 
 POTCAR:    PAW_PBE O_h 06Feb2004                 
   VRHFIN =O: s2p4                                                                                  
   LEXCH  = PE                                                                                      
   EATOM  =   432.3788 eV,   31.7789 Ry                                                             
                                                                                                    
   TITEL  = PAW_PBE O_h 06Feb2004                                                                   
   LULTRA =        F    use ultrasoft PP ?                                                          
   IUNSCR =        1    unscreen: 0-lin 1-nonlin 2-no                                               
   RPACOR =    0.800    partial core radius                                                         
   POMASS =   16.000; ZVAL   =    6.000    mass and valenz                                          
   RCORE  =    1.100    outmost cutoff radius                                                       
   RWIGS  =    1.400; RWIGS  =    0.741    wigner-seitz radius (au A)                               
   ENMAX  =  700.000; ENMIN  =  500.000 eV                                                          
   ICORE  =        2    local potential                                                             
   LCOR   =        T    correct aug charges                                                         
   LPAW   =        T    paw PP                                                                      
   EAUG   =  888.804                                                                                
   DEXC   =    0.000                                                                                
   RMAX   =    1.128    core radius for proj-oper                                                   
   RAUG   =    1.300    factor for augmentation sphere                                              
   RDEP   =    1.125    radius for radial grids                                                     
   RDEPT  =    1.088    core radius for aug-charge                                                  
                                                                                                    
   Atomic configuration                                                                             
    4 entries                                                                                       
     n  l   j            E        occ.                                                              
     1  0  0.50      -514.6923   2.0000                                                             
     2  0  0.50       -23.9615   2.0000                                                             
     2  1  0.50        -9.0305   4.0000                                                             
     3  2  1.50        -9.5241   0.0000                                                             
   Description                                                                                      
     l       E           TYP  RCUT    TYP  RCUT                                                     
     0    -23.9615319     23  1.100                                                                 
     0    -25.3221145     23  1.100                                                                 
     1     -9.0304911     23  1.100                                                                 
     1     -5.4802209     23  1.100                                                                 
     2     -9.5240782      7  1.100                                                                 
  local pseudopotential read in
  partial core-charges read in
  partial kinetic energy density read in
  atomic valenz-charges read in
  non local Contribution for L=           0  read in
    real space projection operators read in
  non local Contribution for L=           0  read in
    real space projection operators read in
  non local Contribution for L=           1  read in
    real space projection operators read in
  non local Contribution for L=           1  read in
    real space projection operators read in
    PAW grid and wavefunctions read in
 
   number of l-projection  operators is LMAX  =           4
   number of lm-projection operators is LMMAX =           8
 
 -----------------------------------------------------------------------------
|                                                                             |
|               ----> ADVICE to this user running VASP <----                  |
|                                                                             |
|     You have a (more or less) 'large supercell' and for larger cells it     |
|     might be more efficient to use real-space projection operators.         |
|     Therefore, try LREAL= Auto in the INCAR file.                           |
|     Mind: For very accurate calculation, you might also keep the            |
|     reciprocal projection scheme (i.e. LREAL=.FALSE.).                      |
|                                                                             |
 -----------------------------------------------------------------------------

 -----------------------------------------------------------------------------
|                                                                             |
|               ----> ADVICE to this user running VASP <----                  |
|                                                                             |
|     You enforced a specific xc type in the INCAR file but a different       |
|     type was found in the POTCAR file.                                      |
|     I HOPE YOU KNOW WHAT YOU ARE DOING!                                     |
|                                                                             |
 -----------------------------------------------------------------------------

  PAW_PBE C_h 06Feb2004                 :
 energy of atom  1       EATOM= -147.1560
 kinetic energy error for atom=    0.0031 (will be added to EATOM!!)
  PAW_PBE O_h 06Feb2004                 :
 energy of atom  2       EATOM= -432.3788
 kinetic energy error for atom=    0.0171 (will be added to EATOM!!)
 
 
 POSCAR:  C  O
  positions in cartesian coordinates
  No initial velocities read in
 exchange correlation table for  LEXCH =       44
   RHO(1)=    0.500       N(1)  =     2000
   RHO(2)=  100.500       N(2)  =     4000
 


--------------------------------------------------------------------------------------------------------


 ion  position               nearest neighbor table
   1  0.972  0.000  0.001-  50 1.42   2 1.42  42 1.42
   2  0.039  0.134  0.000-   5 1.42   7 1.42   1 1.42
   3  0.172  0.000  0.000-  42 1.42  44 1.42   4 1.42
   4  0.239  0.134  0.000-   7 1.42   3 1.42  23 1.42
   5  0.972  0.200  0.000-   6 1.42   2 1.42  34 1.42
   6  0.039  0.334  0.000-   5 1.42  21 1.42  11 1.42
   7  0.172  0.200  0.000-   8 1.42   2 1.42   4 1.42
   8  0.239  0.334  0.000-  13 1.42   7 1.42  21 1.42
   9  0.372  0.000  0.000-  10 1.42  44 1.42  46 1.42
  10  0.439  0.134  0.000-  27 1.42   9 1.42  23 1.42
  11  0.972  0.400  0.001-  12 1.42  36 1.42   6 1.42
  12  0.039  0.534  0.001-  25 1.42  11 1.42  17 1.42
  13  0.372  0.400  0.000-   8 1.42  14 1.42  24 1.42
  14  0.439  0.534  0.000-  13 1.42  29 1.42  19 1.42
  15  0.572  0.000  0.001-  46 1.42  16 1.42  48 1.42
  16  0.639  0.134  0.001-  15 1.42  35 1.42  27 1.42
  17  0.972  0.600  0.001-  38 1.42  18 1.42  12 1.42
  18  0.039  0.734  0.001-  43 1.42  41 1.42  17 1.42
  19  0.572  0.600  0.000-  14 1.42  20 1.42  32 1.42
  20  0.639  0.734  0.001-  49 1.42  19 1.42  47 1.42
  21  0.172  0.400  0.000-  22 1.42   8 1.42   6 1.42
  22  0.239  0.534  0.000-  21 1.42  29 1.42  25 1.42
  23  0.372  0.200  0.000-  10 1.42   4 1.42  24 1.42
  24  0.439  0.334  0.000-  13 1.42  31 1.42  23 1.42
  25  0.172  0.600  0.001-  26 1.42  12 1.42  22 1.42
  26  0.239  0.734  0.001-  25 1.42  45 1.42  43 1.42
  27  0.572  0.200  0.000-  10 1.42  28 1.42  16 1.42
  28  0.639  0.334  0.000-  27 1.42  37 1.42  31 1.42
  29  0.372  0.600  0.000-  22 1.42  14 1.42  30 1.42
  30  0.439  0.734  0.000-  47 1.42  29 1.42  45 1.42
  31  0.572  0.400  0.000-  32 1.42  28 1.42  24 1.42
  32  0.639  0.534  0.000-  31 1.42  39 1.42  19 1.42
  33  0.772  0.000  0.001-  34 1.42  48 1.42  50 1.42
  34  0.839  0.134  0.001-  33 1.42   5 1.42  35 1.42
  35  0.772  0.200  0.001-  36 1.42  16 1.42  34 1.42
  36  0.839  0.334  0.001-  35 1.42  11 1.42  37 1.42
  37  0.772  0.400  0.001-  28 1.42  38 1.42  36 1.42
  38  0.839  0.534  0.001-  17 1.42  37 1.42  39 1.42
  39  0.772  0.600  0.001-  40 1.42  38 1.42  32 1.42
  40  0.839  0.734  0.001-  39 1.42  49 1.42  41 1.42
  41  0.972  0.800  0.001-  18 1.42  42 1.42  40 1.42
  42  0.039  0.934  0.001-   3 1.42  41 1.42   1 1.42
  43  0.172  0.800  0.001-  18 1.42  44 1.42  26 1.42
  44  0.239  0.934  0.001-   9 1.42  43 1.42   3 1.42
  45  0.372  0.800  0.001-  26 1.42  46 1.42  30 1.42
  46  0.439  0.934  0.001-  15 1.42  45 1.42   9 1.42
  47  0.572  0.800  0.001-  30 1.42  48 1.42  20 1.42
  48  0.639  0.934  0.001-  47 1.42  33 1.42  15 1.42
  49  0.772  0.800  0.001-  50 1.42  20 1.42  40 1.42
  50  0.839  0.934  0.001-  49 1.42   1 1.42  33 1.42
  51  0.373  0.251  0.126-  52 1.18  53 1.18
  52  0.421  0.189  0.129-  51 1.18
  53  0.325  0.313  0.124-  51 1.18
 
  LATTYP: Found a hexagonal cell.
 ALAT       =    12.3250000000
 C/A-ratio  =     2.0283975659
  
  Lattice vectors:
  
 A1 = (  12.3250000000,   0.0000000000,   0.0000000000)
 A2 = (  -6.1625000000,  10.6737631016,   0.0000000000)
 A3 = (   0.0000000000,   0.0000000000,  25.0000000000)


Analysis of symmetry for initial positions (statically):
=====================================================================
 Subroutine PRICEL returns:
 Original cell was already a primitive cell.
 

 Routine SETGRP: Setting up the symmetry group for a 
 hexagonal supercell.


 Subroutine GETGRP returns: Found  1 space group operations
 (whereof  1 operations were pure point group operations)
 out of a pool of 24 trial point group operations.


The static configuration has the point symmetry C_1 .


Analysis of symmetry for dynamics (positions and initial velocities):
=====================================================================
 Subroutine PRICEL returns:
 Original cell was already a primitive cell.
 

 Routine SETGRP: Setting up the symmetry group for a 
 hexagonal supercell.


 Subroutine GETGRP returns: Found  1 space group operations
 (whereof  1 operations were pure point group operations)
 out of a pool of 24 trial point group operations.


The dynamic configuration has the point symmetry C_1 .


 Subroutine INISYM returns: Found  1 space group operations
 (whereof  1 operations are pure point group operations),
 and found     1 'primitive' translations


----------------------------------------------------------------------------------------

                                     Primitive cell                                     

  volume of cell :    3288.8533

  direct lattice vectors                    reciprocal lattice vectors
    12.325000000  0.000000000  0.000000000     0.081135903  0.046843835  0.000000000
    -6.162500000 10.673763102  0.000000000     0.000000000  0.093687670  0.000000000
     0.000000000  0.000000000 25.000000000     0.000000000  0.000000000  0.040000000

  length of vectors
    12.325000000 12.325000000 25.000000000     0.093687670  0.093687670  0.040000000

  position of ions in fractional coordinates (direct lattice)
     0.972450841  0.000320818  0.000566711
     0.039118382  0.133659505  0.000440173
     0.172443627  0.000295449  0.000499628
     0.239096278  0.133647917  0.000256468
     0.972452058  0.200322012  0.000485219
     0.039128360  0.333643771  0.000444150
     0.172451764  0.200354552  0.000219167
     0.239124359  0.333665720  0.000072260
     0.372465565  0.000324403  0.000453913
     0.439137473  0.133619939  0.000258338
     0.972449824  0.400309362  0.000547611
     0.039124981  0.533636789  0.000573410
     0.372416176  0.400329481  0.000000000
     0.439099602  0.533638981  0.000232414
     0.572443676  0.000312125  0.000559580
     0.639110207  0.133631751  0.000547275
     0.972452703  0.600305653  0.000640289
     0.039124495  0.733640359  0.000654513
     0.572433471  0.600306242  0.000402895
     0.639111888  0.733641879  0.000527905
     0.172454630  0.400318228  0.000289045
     0.239120185  0.533636548  0.000378509
     0.372459750  0.200295993  0.000088997
     0.439107096  0.333673419  0.000055762
     0.172452155  0.600311506  0.000524340
     0.239123371  0.733638574  0.000575129
     0.572431082  0.200289171  0.000413296
     0.639112773  0.333618630  0.000462376
     0.372439808  0.600308022  0.000362844
     0.439116090  0.733637858  0.000494190
     0.572469358  0.400320504  0.000339918
     0.639119408  0.533650873  0.000459610
     0.772445723  0.000315427  0.000596161
     0.839116277  0.133640203  0.000575306
     0.772440513  0.200307432  0.000581033
     0.839120241  0.333635728  0.000585467
     0.772446320  0.400298367  0.000582978
     0.839118980  0.533633964  0.000621100
     0.772456143  0.600308173  0.000595712
     0.839115033  0.733643180  0.000631512
     0.972455313  0.800305582  0.000652233
     0.039114714  0.933643289  0.000598051
     0.172457971  0.800312211  0.000623372
     0.239134551  0.933647193  0.000544850
     0.372451396  0.800316674  0.000551399
     0.439124489  0.933644769  0.000541430
     0.572441101  0.800310054  0.000534535
     0.639115067  0.933638985  0.000587644
     0.772445098  0.800313187  0.000602062
     0.839116614  0.933644338  0.000606830
     0.373021009  0.251226878  0.125992105
     0.420879805  0.189313152  0.128568979
     0.325156981  0.313167186  0.123613910

  ion indices of the primitive-cell ions
   primitive index   ion index
                 1           1
                 2           2
                 3           3
                 4           4
                 5           5
                 6           6
                 7           7
                 8           8
                 9           9
                10          10
                11          11
                12          12
                13          13
                14          14
                15          15
                16          16
                17          17
                18          18
                19          19
                20          20
                21          21
                22          22
                23          23
                24          24
                25          25
                26          26
                27          27
                28          28
                29          29
                30          30
                31          31
                32          32
                33          33
                34          34
                35          35
                36          36
                37          37
                38          38
                39          39
                40          40
                41          41
                42          42
                43          43
                44          44
                45          45
                46          46
                47          47
                48          48
                49          49
                50          50
                51          51
                52          52
                53          53

----------------------------------------------------------------------------------------

 
 
 KPOINTS: auto                                    

Automatic generation of k-mesh.
 Grid dimensions read from file:
 generate k-points for:    1    1    1

 Generating k-lattice:

  Cartesian coordinates                     Fractional coordinates (reciprocal lattice)
     0.081135903  0.046843835  0.000000000     1.000000000 -0.000000000  0.000000000
     0.000000000  0.093687670  0.000000000     0.000000000  1.000000000  0.000000000
     0.000000000  0.000000000  0.040000000     0.000000000  0.000000000  1.000000000

  Length of vectors
     0.093687670  0.093687670  0.040000000

  Shift w.r.t. Gamma in fractional coordinates (k-lattice)
     0.000000000  0.000000000  0.000000000

 
 Subroutine IBZKPT returns following result:
 ===========================================
 
 Found      1 irreducible k-points:
 
 Following reciprocal coordinates:
            Coordinates               Weight
  0.000000  0.000000  0.000000      1.000000
 
 Following cartesian coordinates:
            Coordinates               Weight
  0.000000  0.000000  0.000000      1.000000
 


--------------------------------------------------------------------------------------------------------




 Dimension of arrays:
   k-points           NKPTS =      1   k-points in BZ     NKDIM =      1   number of bands    NBANDS=    136
   number of dos      NEDOS =    301   number of ions     NIONS =     53
   non local maximal  LDIM  =      4   non local SUM 2l+1 LMDIM =      8
   total plane-waves  NPLWV = ******
   max r-space proj   IRMAX =      1   max aug-charges    IRDMAX=  10008
   dimension x,y,z NGX =   128 NGY =  128 NGZ =  270
   dimension x,y,z NGXF=   256 NGYF=  256 NGZF=  540
   support grid    NGXF=   256 NGYF=  256 NGZF=  540
   ions per type =              51   2
   NGX,Y,Z   is equivalent  to a cutoff of  17.27, 17.27, 17.95 a.u.
   NGXF,Y,Z  is equivalent  to a cutoff of  34.53, 34.53, 35.91 a.u.

 SYSTEM =  unknown system                          
 POSCAR =   C  O                                   

 Startparameter for this run:
   NWRITE =      2    write-flag & timer
   PREC   = accura    normal or accurate (medium, high low for compatibility)
   ISTART =      0    job   : 0-new  1-cont  2-samecut
   ICHARG =      2    charge: 1-file 2-atom 10-const
   ISPIN  =      1    spin polarized calculation?
   LNONCOLLINEAR =      F non collinear calculations
   LSORBIT =      F    spin-orbit coupling
   INIWAV =      1    electr: 0-lowe 1-rand  2-diag
   LASPH  =      T    aspherical Exc in radial PAW
 Electronic Relaxation 1
   ENCUT  = 1000.0 eV  73.50 Ry    8.57 a.u.  31.78 31.78 64.46*2*pi/ulx,y,z
   ENINI  = 1000.0     initial cutoff
   ENAUG  =  946.8 eV  augmentation charge cutoff
   NELM   =     60;   NELMIN=  2; NELMDL= -5     # of ELM steps 
   EDIFF  = 0.1E-06   stopping-criterion for ELM
   LREAL  =      F    real-space projection
   NLSPLINE    = F    spline interpolate recip. space projectors
   LCOMPAT=      F    compatible to vasp.4.4
   GGA_COMPAT  = T    GGA compatible to vasp.4.4-vasp.4.6
   LMAXPAW     = -100 max onsite density
   LMAXMIX     =    2 max onsite mixed and CHGCAR
   VOSKOWN=      0    Vosko Wilk Nusair interpolation
   ROPT   =    0.00000   0.00000
 Ionic relaxation
   EDIFFG = 0.1E-05   stopping-criterion for IOM
   NSW    =      0    number of steps for IOM
   NBLOCK =      1;   KBLOCK =      1    inner block; outer block 
   IBRION =     -1    ionic relax: 0-MD 1-quasi-New 2-CG
   NFREE  =      0    steps in history (QN), initial steepest desc. (CG)
   ISIF   =      0    stress and relaxation
   IWAVPR =     10    prediction:  0-non 1-charg 2-wave 3-comb
   ISYM   =      2    0-nonsym 1-usesym 2-fastsym
   LCORR  =      T    Harris-Foulkes like correction to forces

   POTIM  = 0.5000    time-step for ionic-motion
   TEIN   =    0.0    initial temperature
   TEBEG  =    0.0;   TEEND  =   0.0 temperature during run
   SMASS  =  -3.00    Nose mass-parameter (am)
   estimated Nose-frequenzy (Omega)   =  0.10E-29 period in steps = 0.13E+47 mass=  -0.347E-26a.u.
   SCALEE = 1.0000    scale energy and forces
   NPACO  =    256;   APACO  = 16.0  distance and # of slots for P.C.
   PSTRESS=    0.0 pullay stress

  Mass of Ions in am
   POMASS =  12.01 16.00
  Ionic Valenz
   ZVAL   =   4.00  6.00
  Atomic Wigner-Seitz radii
   RWIGS  =  -1.00 -1.00
  virtual crystal weights 
   VCA    =   1.00  1.00
   NELECT =     216.0000    total number of electrons
   NUPDOWN=      -1.0000    fix difference up-down

 DOS related values:
   EMIN   =  10.00;   EMAX   =-10.00  energy-range for DOS
   EFERMI =   0.00
   ISMEAR =     0;   SIGMA  =   0.01  broadening in eV -4-tet -1-fermi 0-gaus

 Electronic relaxation 2 (details)
   IALGO  =     58    algorithm
   LDIAG  =      T    sub-space diagonalisation (order eigenvalues)
   LSUBROT=      F    optimize rotation matrix (better conditioning)
   TURBO    =      0    0=normal 1=particle mesh
   IRESTART =      0    0=no restart 2=restart with 2 vectors
   NREBOOT  =      0    no. of reboots
   NMIN     =      0    reboot dimension
   EREF     =   0.00    reference energy to select bands
   IMIX   =      4    mixing-type and parameters
     AMIX     =   0.40;   BMIX     =  1.00
     AMIX_MAG =   1.60;   BMIX_MAG =  1.00
     AMIN     =   0.10
     WC   =   100.;   INIMIX=   1;  MIXPRE=   1;  MAXMIX= -45

 Intra band minimization:
   WEIMIN = 0.0000     energy-eigenvalue tresh-hold
   EBREAK =  0.18E-09  absolut break condition
   DEPER  =   0.30     relativ break condition  

   TIME   =   0.40     timestep for ELM

  volume/ion in A,a.u.               =      62.05       418.76
  Fermi-wavevector in a.u.,A,eV,Ry     =   0.660508  1.248179  5.935820  0.436270
  Thomas-Fermi vector in A             =   1.732977
 
 Write flags
   LWAVE        =      F    write WAVECAR
   LDOWNSAMPLE  =      F    k-point downsampling of WAVECAR
   LCHARG       =      T    write CHGCAR
   LVTOT        =      F    write LOCPOT, total local potential
   LVHAR        =      F    write LOCPOT, Hartree potential only
   LELF         =      F    write electronic localiz. function (ELF)
   LORBIT       =      0    0 simple, 1 ext, 2 COOP (PROOUT), +10 PAW based schemes


 Dipole corrections
   LMONO  =      F    monopole corrections only (constant potential shift)
   LDIPOL =      F    correct potential (dipole corrections)
   IDIPOL =      0    1-x, 2-y, 3-z, 4-all directions 
   EPSILON=  1.0000000 bulk dielectric constant

 Exchange correlation treatment:
   GGA     =    ML    GGA type
   LEXCH   =    44    internal setting for exchange type
   VOSKOWN=      0    Vosko Wilk Nusair interpolation
   LHFCALC =     F    Hartree Fock is set to
   LHFONE  =     F    Hartree Fock one center treatment
   AEXX    =    0.0000 exact exchange contribution

 vdW DFT:
   LUSE_VDW   =     T    switch on vdW DFT
   Zab_VDW    =******    correlation parameter
   PARAM1     =0.1234
   PARAM2     =1.0000
   PARAM3     =0.0000
   -- rVV10 --
   BPARAM     = 6.3000
   CPARAM     = 0.0093

 Linear response parameters
   LEPSILON=     F    determine dielectric tensor
   LRPA    =     F    only Hartree local field effects (RPA)
   LNABLA  =     F    use nabla operator in PAW spheres
   LVEL    =     F    velocity operator in full k-point grid
   LINTERFAST=   F  fast interpolation
   KINTER  =     0    interpolate to denser k-point grid
   CSHIFT  =0.1000    complex shift for real part using Kramers Kronig
   OMEGAMAX=  -1.0    maximum frequency
   DEG_THRESHOLD= 0.2000000E-02 threshold for treating states as degnerate
   RTIME   =   -0.100 relaxation time in fs
  (WPLASMAI=    0.000 imaginary part of plasma frequency in eV, 0.658/RTIME)
   DFIELD  = 0.0000000 0.0000000 0.0000000 field for delta impulse in time
 
 Orbital magnetization related:
   ORBITALMAG=     F  switch on orbital magnetization
   LCHIMAG   =     F  perturbation theory with respect to B field
   DQ        =  0.001000  dq finite difference perturbation B field
   LLRAUG    =     F  two centre corrections for induced B field



--------------------------------------------------------------------------------------------------------


 Static calculation
 charge density and potential will be updated during run
 non-spin polarized calculation
 Conjugate gradient for all bands (Freysoldt, et al. PRB 79, 241103 (2009))
 preconditioned conjugated gradient                                        
 perform sub-space diagonalisation
    before iterative eigenvector-optimisation
 modified Broyden-mixing scheme, WC =      100.0
 initial mixing is a Kerker type mixing with AMIX =  0.4000 and BMIX =      1.0000
 Hartree-type preconditioning will be used
 using additional bands           28
 reciprocal scheme for non local part
 use partial core corrections
 no Harris-corrections to forces 
 use gradient corrections 
 use of overlap-Matrix (Vanderbilt PP)
 Gauss-broadening in eV      SIGMA  =   0.01


--------------------------------------------------------------------------------------------------------


  energy-cutoff  :     1000.00
  volume of cell :     3288.85
      direct lattice vectors                 reciprocal lattice vectors
    12.325000000  0.000000000  0.000000000     0.081135903  0.046843835  0.000000000
    -6.162500000 10.673763102  0.000000000     0.000000000  0.093687670  0.000000000
     0.000000000  0.000000000 25.000000000     0.000000000  0.000000000  0.040000000

  length of vectors
    12.325000000 12.325000000 25.000000000     0.093687670  0.093687670  0.040000000


 
 k-points in units of 2pi/SCALE and weight: auto                                    
   0.00000000  0.00000000  0.00000000       1.000
 
 k-points in reciprocal lattice and weights: auto                                    
   0.00000000  0.00000000  0.00000000       1.000
 
 position of ions in fractional coordinates (direct lattice) 
   0.97245084  0.00032082  0.00056671
   0.03911838  0.13365950  0.00044017
   0.17244363  0.00029545  0.00049963
   0.23909628  0.13364792  0.00025647
   0.97245206  0.20032201  0.00048522
   0.03912836  0.33364377  0.00044415
   0.17245176  0.20035455  0.00021917
   0.23912436  0.33366572  0.00007226
   0.37246557  0.00032440  0.00045391
   0.43913747  0.13361994  0.00025834
   0.97244982  0.40030936  0.00054761
   0.03912498  0.53363679  0.00057341
   0.37241618  0.40032948  0.00000000
   0.43909960  0.53363898  0.00023241
   0.57244368  0.00031213  0.00055958
   0.63911021  0.13363175  0.00054727
   0.97245270  0.60030565  0.00064029
   0.03912449  0.73364036  0.00065451
   0.57243347  0.60030624  0.00040289
   0.63911189  0.73364188  0.00052791
   0.17245463  0.40031823  0.00028904
   0.23912018  0.53363655  0.00037851
   0.37245975  0.20029599  0.00008900
   0.43910710  0.33367342  0.00005576
   0.17245216  0.60031151  0.00052434
   0.23912337  0.73363857  0.00057513
   0.57243108  0.20028917  0.00041330
   0.63911277  0.33361863  0.00046238
   0.37243981  0.60030802  0.00036284
   0.43911609  0.73363786  0.00049419
   0.57246936  0.40032050  0.00033992
   0.63911941  0.53365087  0.00045961
   0.77244572  0.00031543  0.00059616
   0.83911628  0.13364020  0.00057531
   0.77244051  0.20030743  0.00058103
   0.83912024  0.33363573  0.00058547
   0.77244632  0.40029837  0.00058298
   0.83911898  0.53363396  0.00062110
   0.77245614  0.60030817  0.00059571
   0.83911503  0.73364318  0.00063151
   0.97245531  0.80030558  0.00065223
   0.03911471  0.93364329  0.00059805
   0.17245797  0.80031221  0.00062337
   0.23913455  0.93364719  0.00054485
   0.37245140  0.80031667  0.00055140
   0.43912449  0.93364477  0.00054143
   0.57244110  0.80031005  0.00053453
   0.63911507  0.93363899  0.00058764
   0.77244510  0.80031319  0.00060206
   0.83911661  0.93364434  0.00060683
   0.37302101  0.25122688  0.12599210
   0.42087980  0.18931315  0.12856898
   0.32515698  0.31316719  0.12361391
 
 position of ions in cartesian coordinates  (Angst):
  11.98347958  0.00342433  0.01416777
  -0.34154264  1.42664989  0.01100432
   2.12354700  0.00315355  0.01249070
   2.12325634  1.42652621  0.00641170
  10.75098721  2.13818970  0.01213047
  -1.57382270  3.56123457  0.01110375
   0.89078307  2.13853702  0.00547917
   0.89099273  3.56146885  0.00180651
   4.58863896  0.00346260  0.01134782
   4.58893648  1.42622757  0.00645846
   9.51853763  4.27280730  0.01369027
  -2.80632132  5.69591267  0.01433526
   2.12299894  4.27302204  0.00000000
   2.12335237  5.69593607  0.00581036
   7.05344483  0.00333155  0.01398950
   7.05352764  1.42635365  0.01368187
   8.28609598  6.40752033  0.01600723
  -4.03884931  7.83070339  0.01636283
   3.35585531  6.40752662  0.01007237
   3.35598594  7.83071962  0.01319763
  -0.34145776  4.27290193  0.00722612
  -0.34137895  5.69591010  0.00946273
   3.35624236  2.13791198  0.00222492
   3.35573251  3.56155103  0.00139405
  -1.57394684  6.40758280  0.01310850
  -1.57385216  7.83068434  0.01437823
   5.82093107  2.13783916  0.01033241
   5.82114012  3.56096622  0.01155939
   0.89092245  6.40754561  0.00907111
   0.89106251  7.83067670  0.01235474
   4.58870974  4.27292622  0.00849795
   4.58852320  5.69606300  0.01149026
   9.51844972  0.00336679  0.01490402
   9.51855036  1.42644387  0.01438264
   8.28593477  2.13803408  0.01452582
   8.28612680  3.56114872  0.01463668
   7.05356221  4.27268994  0.01457444
   7.05362213  5.69588251  0.01552751
   5.82112285  6.40754723  0.01489279
   5.82101669  7.83073350  0.01578780
   7.05362858  8.54227219  0.01630582
  -5.27148792  9.96548729  0.01495127
  -2.80637951  8.54234295  0.01558431
  -2.80626749  9.96552896  0.01362126
  -0.34148805  8.54239058  0.01378498
  -0.34137657  9.96550309  0.01353576
   2.12342586  8.54231992  0.01336337
   2.12354296  9.96544135  0.01469111
   4.58845581  8.54235337  0.01505154
   4.58852904  9.96549848  0.01517076
   3.04929830  2.68153618  3.14980262
   4.02070129  2.02068374  3.21422448
   2.07766701  3.34267235  3.09034775
 


--------------------------------------------------------------------------------------------------------


 k-point   1 :   0.0000 0.0000 0.0000  plane waves:  236157

 maximum and minimum number of plane-waves per node :      8440     8428

 maximum number of plane-waves:    236157
 maximum index in each direction: 
   IXMAX=   31   IYMAX=   31   IZMAX=   64
   IXMIN=  -31   IYMIN=  -31   IZMIN=  -64


 parallel 3D FFT for wavefunctions:
    minimum data exchange during FFTs selected (reduces bandwidth)
 parallel 3D FFT for charge:
    minimum data exchange during FFTs selected (reduces bandwidth)


 total amount of memory used by VASP MPI-rank0   100580. kBytes
=======================================================================

   base      :      30000. kBytes
   nonl-proj :       8229. kBytes
   fftplans  :      18352. kBytes
   grid      :      30208. kBytes
   one-center:          6. kBytes
   wavefun   :      13785. kBytes
 
     INWAV:  cpu time    0.0000: real time    0.0000
 Broyden mixing: mesh for mixing (old mesh)
   NGX = 63   NGY = 63   NGZ =129
  (NGX  =256   NGY  =256   NGZ  =540)
  gives a total of 512001 points

 initial charge density was supplied:
 charge density of overlapping atoms calculated
 number of electron     216.0000000 magnetization 
 keeping initial charge density in first step


--------------------------------------------------------------------------------------------------------


 Maximum index for augmentation-charges          471 (set IRDMAX)


--------------------------------------------------------------------------------------------------------


 First call to EWALD:  gamma=   0.119
 Maximum number of real-space cells 4x 4x 2
 Maximum number of reciprocal cells 2x 2x 4

    FEWALD:  cpu time    0.0030: real time    0.0030


--------------------------------------- Iteration      1(   1)  ---------------------------------------


vdW kernel read from vdw_kernel.bindat
  0.0000  0.2424  0.5071  0.7962  1.1119  1.4567  1.8333  2.2446  2.6937  3.1842
  3.7199  4.3049  4.9438  5.6415  6.4036  7.2358  8.1446  9.1372 10.2212 11.4050
 12.6979 14.1099 15.6519 17.3360 19.1751 21.1837 23.3773 25.7729 28.3892 31.2465
 34.3669 37.7748 41.4965 45.5611 50.0000
 
    POTLOK:  cpu time    4.5404: real time    4.5766
    SETDIJ:  cpu time    0.0537: real time    0.0540
    TRIAL :  cpu time    2.1256: real time    2.1468
    CORREC:  cpu time    0.0007: real time    0.0007
    --------------------------------------------
      LOOP:  cpu time    6.7266: real time    6.7936

 eigenvalue-minimisations  :   296
 total energy-change (2. order) : 0.2806779E+04  (-0.1023348E+05)
 number of electron     216.0000000 magnetization 
 augmentation part      216.0000000 magnetization 

 Free energy of the ion-electron system (eV)
  ---------------------------------------------------
  alpha Z        PSCENC =        47.94900195
  Ewald energy   TEWEN  =     47538.22437387
  -Hartree energ DENC   =    -53606.79122026
  -exchange      EXHF   =         0.00000000
  -V(xc)+E(xc)   XCENC  =       352.83757502
  PAW double counting   =      6601.42964284    -6299.49404826
  entropy T*S    EENTRO =        -0.00000000
  eigenvalues    EBANDS =      -384.78863343
  atomic energy  EATOM  =      8557.41276814
  ---------------------------------------------------
  free energy    TOTEN  =      2806.77945987 eV

  energy without entropy =     2806.77945987  energy(sigma->0) =     2806.77945987


--------------------------------------------------------------------------------------------------------




--------------------------------------- Iteration      1(   2)  ---------------------------------------


    TRIAL :  cpu time    2.8737: real time    2.8999
    CORREC:  cpu time    0.0001: real time    0.0001
    --------------------------------------------
      LOOP:  cpu time    2.9364: real time    2.9636

 eigenvalue-minimisations  :   448
 total energy-change (2. order) :-0.2317411E+04  (-0.2168731E+04)
 number of electron     216.0000000 magnetization 
 augmentation part      216.0000000 magnetization 

 Free energy of the ion-electron system (eV)
  ---------------------------------------------------
  alpha Z        PSCENC =        47.94900195
  Ewald energy   TEWEN  =     47538.22437387
  -Hartree energ DENC   =    -53606.79122026
  -exchange      EXHF   =         0.00000000
  -V(xc)+E(xc)   XCENC  =       352.83757502
  PAW double counting   =      6601.42964284    -6299.49404826
  entropy T*S    EENTRO =        -0.00000000
  eigenvalues    EBANDS =     -2702.19930994
  atomic energy  EATOM  =      8557.41276814
  ---------------------------------------------------
  free energy    TOTEN  =       489.36878336 eV

  energy without entropy =      489.36878336  energy(sigma->0) =      489.36878336


--------------------------------------------------------------------------------------------------------




--------------------------------------- Iteration      1(   3)  ---------------------------------------


    TRIAL :  cpu time    2.3450: real time    2.3652
    CORREC:  cpu time    0.0001: real time    0.0002
    --------------------------------------------
      LOOP:  cpu time    2.3915: real time    2.4275

 eigenvalue-minimisations  :   344
 total energy-change (2. order) :-0.8385680E+03  (-0.8244498E+03)
 number of electron     216.0000000 magnetization 
 augmentation part      216.0000000 magnetization 

 Free energy of the ion-electron system (eV)
  ---------------------------------------------------
  alpha Z        PSCENC =        47.94900195
  Ewald energy   TEWEN  =     47538.22437387
  -Hartree energ DENC   =    -53606.79122026
  -exchange      EXHF   =         0.00000000
  -V(xc)+E(xc)   XCENC  =       352.83757502
  PAW double counting   =      6601.42964284    -6299.49404826
  entropy T*S    EENTRO =        -0.00000000
  eigenvalues    EBANDS =     -3540.76728070
  atomic energy  EATOM  =      8557.41276814
  ---------------------------------------------------
  free energy    TOTEN  =      -349.19918741 eV

  energy without entropy =     -349.19918741  energy(sigma->0) =     -349.19918741


--------------------------------------------------------------------------------------------------------




--------------------------------------- Iteration      1(   4)  ---------------------------------------


    TRIAL :  cpu time    2.3191: real time    2.3395
    CORREC:  cpu time    0.0001: real time    0.0002
    --------------------------------------------
      LOOP:  cpu time    2.3544: real time    2.3970

 eigenvalue-minimisations  :   336
 total energy-change (2. order) :-0.8063977E+02  (-0.7957523E+02)
 number of electron     216.0000000 magnetization 
 augmentation part      216.0000000 magnetization 

 Free energy of the ion-electron system (eV)
  ---------------------------------------------------
  alpha Z        PSCENC =        47.94900195
  Ewald energy   TEWEN  =     47538.22437387
  -Hartree energ DENC   =    -53606.79122026
  -exchange      EXHF   =         0.00000000
  -V(xc)+E(xc)   XCENC  =       352.83757502
  PAW double counting   =      6601.42964284    -6299.49404826
  entropy T*S    EENTRO =        -0.00000000
  eigenvalues    EBANDS =     -3621.40705354
  atomic energy  EATOM  =      8557.41276814
  ---------------------------------------------------
  free energy    TOTEN  =      -429.83896024 eV

  energy without entropy =     -429.83896024  energy(sigma->0) =     -429.83896024


--------------------------------------------------------------------------------------------------------




--------------------------------------- Iteration      1(   5)  ---------------------------------------


    TRIAL :  cpu time    2.4057: real time    2.4263
    CORREC:  cpu time    0.0001: real time    0.0001
    CHARGE:  cpu time    0.1806: real time    0.1829
    --------------------------------------------
      LOOP:  cpu time    2.6260: real time    2.6518

 eigenvalue-minimisations  :   352
 total energy-change (2. order) :-0.2476316E+01  (-0.2461043E+01)
 number of electron     216.0000000 magnetization 
 augmentation part       -0.1519341 magnetization 

 Free energy of the ion-electron system (eV)
  ---------------------------------------------------
  alpha Z        PSCENC =        47.94900195
  Ewald energy   TEWEN  =     47538.22437387
  -Hartree energ DENC   =    -53606.79122026
  -exchange      EXHF   =         0.00000000
  -V(xc)+E(xc)   XCENC  =       352.83757502
  PAW double counting   =      6601.42964284    -6299.49404826
  entropy T*S    EENTRO =        -0.00000000
  eigenvalues    EBANDS =     -3623.88336907
  atomic energy  EATOM  =      8557.41276814
  ---------------------------------------------------
  free energy    TOTEN  =      -432.31527577 eV

  energy without entropy =     -432.31527577  energy(sigma->0) =     -432.31527577


--------------------------------------------------------------------------------------------------------




--------------------------------------- Iteration      1(   6)  ---------------------------------------


    POTLOK:  cpu time    4.2479: real time    4.2828
    SETDIJ:  cpu time    0.0528: real time    0.0530
    TRIAL :  cpu time    1.1690: real time    1.1800
    CORREC:  cpu time    4.7230: real time    4.7602
    CHARGE:  cpu time    0.1822: real time    0.1840
    --------------------------------------------
      LOOP:  cpu time   10.3970: real time   10.4840

 eigenvalue-minimisations  :     0
 total energy-change (2. order) : 0.6317387E+02  (-0.2136457E+02)
 number of electron     216.0000000 magnetization 
 augmentation part       -0.2796869 magnetization 

 Free energy of the ion-electron system (eV)
  ---------------------------------------------------
  alpha Z        PSCENC =        47.94900195
  Ewald energy   TEWEN  =     47538.22437387
  -Hartree energ DENC   =    -55171.11840089
  -exchange      EXHF   =         0.00000000
  -V(xc)+E(xc)   XCENC  =       408.00447639
  PAW double counting   =     52754.74030678   -52476.84219413
  entropy T*S    EENTRO =        -0.00000000
  eigenvalues    EBANDS =     -2027.51173543
  atomic energy  EATOM  =      8557.41276814
  ---------------------------------------------------
  free energy    TOTEN  =      -369.14140333 eV

  energy without entropy =     -369.14140333  energy(sigma->0) =     -369.14140333


--------------------------------------------------------------------------------------------------------




--------------------------------------- Iteration      1(   7)  ---------------------------------------


    POTLOK:  cpu time    4.2260: real time    4.2570
    SETDIJ:  cpu time    0.0527: real time    0.0528
    TRIAL :  cpu time    1.1664: real time    1.1770
    CORREC:  cpu time    4.7242: real time    4.7595
    CHARGE:  cpu time    0.1819: real time    0.1839
    --------------------------------------------
      LOOP:  cpu time   10.4080: real time   10.4884

 eigenvalue-minimisations  :     0
 total energy-change (2. order) :-0.2145818E+02  (-0.2134701E+01)
 number of electron     216.0000000 magnetization 
 augmentation part       -0.3327251 magnetization 

 Free energy of the ion-electron system (eV)
  ---------------------------------------------------
  alpha Z        PSCENC =        47.94900195
  Ewald energy   TEWEN  =     47538.22437387
  -Hartree energ DENC   =    -54572.25400436
  -exchange      EXHF   =         0.00000000
  -V(xc)+E(xc)   XCENC  =       385.77450799
  PAW double counting   =     68654.62176010   -68369.71408641
  entropy T*S    EENTRO =        -0.00000000
  eigenvalues    EBANDS =     -2632.61390414
  atomic energy  EATOM  =      8557.41276814
  ---------------------------------------------------
  free energy    TOTEN  =      -390.59958286 eV

  energy without entropy =     -390.59958286  energy(sigma->0) =     -390.59958286


--------------------------------------------------------------------------------------------------------




--------------------------------------- Iteration      1(   8)  ---------------------------------------


    POTLOK:  cpu time    4.2219: real time    4.2526
    SETDIJ:  cpu time    0.0526: real time    0.0528
    TRIAL :  cpu time    1.1669: real time    1.1777
    CORREC:  cpu time    4.7416: real time    4.7775
    CHARGE:  cpu time    0.1820: real time    0.1838
    --------------------------------------------
      LOOP:  cpu time   10.4356: real time   10.5173

 eigenvalue-minimisations  :     0
 total energy-change (2. order) :-0.2133611E+01  (-0.6179545E+00)
 number of electron     216.0000000 magnetization 
 augmentation part       -0.3544994 magnetization 

 Free energy of the ion-electron system (eV)
  ---------------------------------------------------
  alpha Z        PSCENC =        47.94900195
  Ewald energy   TEWEN  =     47538.22437387
  -Hartree energ DENC   =    -54549.21219971
  -exchange      EXHF   =         0.00000000
  -V(xc)+E(xc)   XCENC  =       385.31341875
  PAW double counting   =     74048.51288524   -73762.48909169
  entropy T*S    EENTRO =        -0.00000000
  eigenvalues    EBANDS =     -2658.44435035
  atomic energy  EATOM  =      8557.41276814
  ---------------------------------------------------
  free energy    TOTEN  =      -392.73319380 eV

  energy without entropy =     -392.73319380  energy(sigma->0) =     -392.73319380


--------------------------------------------------------------------------------------------------------




--------------------------------------- Iteration      1(   9)  ---------------------------------------


    POTLOK:  cpu time    4.2497: real time    4.2842
    SETDIJ:  cpu time    0.0530: real time    0.0532
    TRIAL :  cpu time    1.1673: real time    1.1783
    CORREC:  cpu time    4.7195: real time    4.7552
    CHARGE:  cpu time    0.1832: real time    0.1850
    --------------------------------------------
      LOOP:  cpu time   10.4267: real time   10.5434

 eigenvalue-minimisations  :     0
 total energy-change (2. order) :-0.6178268E+00  (-0.2521402E+00)
 number of electron     216.0000000 magnetization 
 augmentation part       -0.3627046 magnetization 

 Free energy of the ion-electron system (eV)
  ---------------------------------------------------
  alpha Z        PSCENC =        47.94900195
  Ewald energy   TEWEN  =     47538.22437387
  -Hartree energ DENC   =    -54561.16738116
  -exchange      EXHF   =         0.00000000
  -V(xc)+E(xc)   XCENC  =       385.69424255
  PAW double counting   =     78478.90560011   -78192.40631144
  entropy T*S    EENTRO =        -0.00000000
  eigenvalues    EBANDS =     -2647.96331461
  atomic energy  EATOM  =      8557.41276814
  ---------------------------------------------------
  free energy    TOTEN  =      -393.35102058 eV

  energy without entropy =     -393.35102058  energy(sigma->0) =     -393.35102058


--------------------------------------------------------------------------------------------------------




--------------------------------------- Iteration      1(  10)  ---------------------------------------


    POTLOK:  cpu time    4.2479: real time    4.2772
    SETDIJ:  cpu time    0.0533: real time    0.0534
    TRIAL :  cpu time    1.1665: real time    1.1774
    CORREC:  cpu time    4.7254: real time    4.7606
    CHARGE:  cpu time    0.1798: real time    0.1885
    --------------------------------------------
      LOOP:  cpu time   10.4108: real time   10.5001

 eigenvalue-minimisations  :     0
 total energy-change (2. order) :-0.2511601E+00  (-0.1172957E+00)
 number of electron     216.0000000 magnetization 
 augmentation part       -0.3597248 magnetization 

 Free energy of the ion-electron system (eV)
  ---------------------------------------------------
  alpha Z        PSCENC =        47.94900195
  Ewald energy   TEWEN  =     47538.22437387
  -Hartree energ DENC   =    -54554.71907224
  -exchange      EXHF   =         0.00000000
  -V(xc)+E(xc)   XCENC  =       385.60243194
  PAW double counting   =     80342.17189262   -80055.36961763
  entropy T*S    EENTRO =        -0.00000000
  eigenvalues    EBANDS =     -2654.87395934
  atomic energy  EATOM  =      8557.41276814
  ---------------------------------------------------
  free energy    TOTEN  =      -393.60218070 eV

  energy without entropy =     -393.60218070  energy(sigma->0) =     -393.60218070


--------------------------------------------------------------------------------------------------------




--------------------------------------- Iteration      1(  11)  ---------------------------------------


    POTLOK:  cpu time    4.2674: real time    4.3034
    SETDIJ:  cpu time    0.0529: real time    0.0530
    TRIAL :  cpu time    1.1666: real time    1.1777
    CORREC:  cpu time    4.7374: real time    4.7770
    CHARGE:  cpu time    0.1831: real time    0.1849
    --------------------------------------------
      LOOP:  cpu time   10.4296: real time   10.5210

 eigenvalue-minimisations  :     0
 total energy-change (2. order) :-0.1165551E+00  (-0.4545419E-01)
 number of electron     216.0000000 magnetization 
 augmentation part       -0.3567903 magnetization 

 Free energy of the ion-electron system (eV)
  ---------------------------------------------------
  alpha Z        PSCENC =        47.94900195
  Ewald energy   TEWEN  =     47538.22437387
  -Hartree energ DENC   =    -54545.85446605
  -exchange      EXHF   =         0.00000000
  -V(xc)+E(xc)   XCENC  =       385.49646943
  PAW double counting   =     80348.69056075   -80061.83556759
  entropy T*S    EENTRO =        -0.00000000
  eigenvalues    EBANDS =     -2663.80187627
  atomic energy  EATOM  =      8557.41276814
  ---------------------------------------------------
  free energy    TOTEN  =      -393.71873576 eV

  energy without entropy =     -393.71873576  energy(sigma->0) =     -393.71873576


--------------------------------------------------------------------------------------------------------




--------------------------------------- Iteration      1(  12)  ---------------------------------------


    POTLOK:  cpu time    4.2039: real time    4.2733
    SETDIJ:  cpu time    0.0527: real time    0.0530
    TRIAL :  cpu time    1.1538: real time    1.1788
    CORREC:  cpu time    4.7063: real time    4.7424
    CHARGE:  cpu time    0.1824: real time    0.1843
    --------------------------------------------
      LOOP:  cpu time   10.3378: real time   10.4950

 eigenvalue-minimisations  :     0
 total energy-change (2. order) :-0.4529403E-01  (-0.1364721E-01)
 number of electron     216.0000000 magnetization 
 augmentation part       -0.3560441 magnetization 

 Free energy of the ion-electron system (eV)
  ---------------------------------------------------
  alpha Z        PSCENC =        47.94900195
  Ewald energy   TEWEN  =     47538.22437387
  -Hartree energ DENC   =    -54542.02722751
  -exchange      EXHF   =         0.00000000
  -V(xc)+E(xc)   XCENC  =       385.40028226
  PAW double counting   =     79772.19934726   -79485.41420747
  entropy T*S    EENTRO =        -0.00000000
  eigenvalues    EBANDS =     -2667.50836829
  atomic energy  EATOM  =      8557.41276814
  ---------------------------------------------------
  free energy    TOTEN  =      -393.76402979 eV

  energy without entropy =     -393.76402979  energy(sigma->0) =     -393.76402979


--------------------------------------------------------------------------------------------------------




--------------------------------------- Iteration      1(  13)  ---------------------------------------


    POTLOK:  cpu time    4.2287: real time    4.2583
    SETDIJ:  cpu time    0.0525: real time    0.0526
    TRIAL :  cpu time    1.1655: real time    1.1765
    CORREC:  cpu time    4.7252: real time    4.7606
    CHARGE:  cpu time    0.1830: real time    0.1848
    --------------------------------------------
      LOOP:  cpu time   10.4036: real time   10.4995

 eigenvalue-minimisations  :     0
 total energy-change (2. order) :-0.1363401E-01  (-0.4128595E-02)
 number of electron     216.0000000 magnetization 
 augmentation part       -0.3558018 magnetization 

 Free energy of the ion-electron system (eV)
  ---------------------------------------------------
  alpha Z        PSCENC =        47.94900195
  Ewald energy   TEWEN  =     47538.22437387
  -Hartree energ DENC   =    -54541.58534824
  -exchange      EXHF   =         0.00000000
  -V(xc)+E(xc)   XCENC  =       385.36111193
  PAW double counting   =     79320.80589604   -79034.08321788
  entropy T*S    EENTRO =        -0.00000000
  eigenvalues    EBANDS =     -2667.86224962
  atomic energy  EATOM  =      8557.41276814
  ---------------------------------------------------
  free energy    TOTEN  =      -393.77766380 eV

  energy without entropy =     -393.77766380  energy(sigma->0) =     -393.77766380


--------------------------------------------------------------------------------------------------------




--------------------------------------- Iteration      1(  14)  ---------------------------------------


    POTLOK:  cpu time    4.2328: real time    4.2642
    SETDIJ:  cpu time    0.0529: real time    0.0531
    TRIAL :  cpu time    1.1976: real time    1.2087
    CORREC:  cpu time    4.7348: real time    4.7751
    CHARGE:  cpu time    0.1822: real time    0.1840
    --------------------------------------------
      LOOP:  cpu time   10.4362: real time   10.5482

 eigenvalue-minimisations  :     0
 total energy-change (2. order) :-0.4125902E-02  (-0.1537787E-02)
 number of electron     216.0000000 magnetization 
 augmentation part       -0.3561536 magnetization 

 Free energy of the ion-electron system (eV)
  ---------------------------------------------------
  alpha Z        PSCENC =        47.94900195
  Ewald energy   TEWEN  =     47538.22437387
  -Hartree energ DENC   =    -54541.57678640
  -exchange      EXHF   =         0.00000000
  -V(xc)+E(xc)   XCENC  =       385.33862491
  PAW double counting   =     79131.74435434   -78845.05212357
  entropy T*S    EENTRO =        -0.00000000
  eigenvalues    EBANDS =     -2667.82200295
  atomic energy  EATOM  =      8557.41276814
  ---------------------------------------------------
  free energy    TOTEN  =      -393.78178970 eV

  energy without entropy =     -393.78178970  energy(sigma->0) =     -393.78178970


--------------------------------------------------------------------------------------------------------




--------------------------------------- Iteration      1(  15)  ---------------------------------------


    POTLOK:  cpu time    4.2290: real time    4.2580
    SETDIJ:  cpu time    0.0526: real time    0.0528
    TRIAL :  cpu time    1.1661: real time    1.1772
    CORREC:  cpu time    4.7065: real time    4.7413
    CHARGE:  cpu time    0.1830: real time    0.1847
    --------------------------------------------
      LOOP:  cpu time   10.3785: real time   10.4559

 eigenvalue-minimisations  :     0
 total energy-change (2. order) :-0.1535889E-02  (-0.8192533E-03)
 number of electron     216.0000000 magnetization 
 augmentation part       -0.3562341 magnetization 

 Free energy of the ion-electron system (eV)
  ---------------------------------------------------
  alpha Z        PSCENC =        47.94900195
  Ewald energy   TEWEN  =     47538.22437387
  -Hartree energ DENC   =    -54541.29695346
  -exchange      EXHF   =         0.00000000
  -V(xc)+E(xc)   XCENC  =       385.31311646
  PAW double counting   =     79058.64238601   -78771.95836262
  entropy T*S    EENTRO =        -0.00000000
  eigenvalues    EBANDS =     -2668.06965596
  atomic energy  EATOM  =      8557.41276814
  ---------------------------------------------------
  free energy    TOTEN  =      -393.78332559 eV

  energy without entropy =     -393.78332559  energy(sigma->0) =     -393.78332559


--------------------------------------------------------------------------------------------------------




--------------------------------------- Iteration      1(  16)  ---------------------------------------


    POTLOK:  cpu time    4.2297: real time    4.2590
    SETDIJ:  cpu time    0.0527: real time    0.0528
    TRIAL :  cpu time    1.1657: real time    1.1767
    CORREC:  cpu time    4.7152: real time    4.7529
    CHARGE:  cpu time    0.1826: real time    0.1845
    --------------------------------------------
      LOOP:  cpu time   10.3976: real time   10.5154

 eigenvalue-minimisations  :     0
 total energy-change (2. order) :-0.8174200E-03  (-0.4851257E-03)
 number of electron     216.0000000 magnetization 
 augmentation part       -0.3562290 magnetization 

 Free energy of the ion-electron system (eV)
  ---------------------------------------------------
  alpha Z        PSCENC =        47.94900195
  Ewald energy   TEWEN  =     47538.22437387
  -Hartree energ DENC   =    -54541.75225067
  -exchange      EXHF   =         0.00000000
  -V(xc)+E(xc)   XCENC  =       385.32824914
  PAW double counting   =     78988.21980919   -78701.54200004
  entropy T*S    EENTRO =        -0.00000000
  eigenvalues    EBANDS =     -2667.62409459
  atomic energy  EATOM  =      8557.41276814
  ---------------------------------------------------
  free energy    TOTEN  =      -393.78414301 eV

  energy without entropy =     -393.78414301  energy(sigma->0) =     -393.78414301


--------------------------------------------------------------------------------------------------------




--------------------------------------- Iteration      1(  17)  ---------------------------------------


    POTLOK:  cpu time    4.2337: real time    4.2657
    SETDIJ:  cpu time    0.0528: real time    0.0530
    TRIAL :  cpu time    1.1667: real time    1.1776
    CORREC:  cpu time    4.7361: real time    4.7770
    CHARGE:  cpu time    0.1822: real time    0.1840
    --------------------------------------------
      LOOP:  cpu time   10.4425: real time   10.5290

 eigenvalue-minimisations  :     0
 total energy-change (2. order) :-0.4851125E-03  (-0.2159998E-03)
 number of electron     216.0000000 magnetization 
 augmentation part       -0.3562064 magnetization 

 Free energy of the ion-electron system (eV)
  ---------------------------------------------------
  alpha Z        PSCENC =        47.94900195
  Ewald energy   TEWEN  =     47538.22437387
  -Hartree energ DENC   =    -54541.96105321
  -exchange      EXHF   =         0.00000000
  -V(xc)+E(xc)   XCENC  =       385.33494234
  PAW double counting   =     78931.13190053   -78644.45152958
  entropy T*S    EENTRO =        -0.00000000
  eigenvalues    EBANDS =     -2667.42503217
  atomic energy  EATOM  =      8557.41276814
  ---------------------------------------------------
  free energy    TOTEN  =      -393.78462813 eV

  energy without entropy =     -393.78462813  energy(sigma->0) =     -393.78462813


--------------------------------------------------------------------------------------------------------




--------------------------------------- Iteration      1(  18)  ---------------------------------------


    POTLOK:  cpu time    4.2429: real time    4.2733
    SETDIJ:  cpu time    0.0530: real time    0.0532
    TRIAL :  cpu time    1.1636: real time    1.1745
    CORREC:  cpu time    4.7149: real time    4.7521
    CHARGE:  cpu time    0.1826: real time    0.1846
    --------------------------------------------
      LOOP:  cpu time   10.4044: real time   10.5005

 eigenvalue-minimisations  :     0
 total energy-change (2. order) :-0.2166605E-03  (-0.8102798E-04)
 number of electron     216.0000000 magnetization 
 augmentation part       -0.3561971 magnetization 

 Free energy of the ion-electron system (eV)
  ---------------------------------------------------
  alpha Z        PSCENC =        47.94900195
  Ewald energy   TEWEN  =     47538.22437387
  -Hartree energ DENC   =    -54542.03122999
  -exchange      EXHF   =         0.00000000
  -V(xc)+E(xc)   XCENC  =       385.33697617
  PAW double counting   =     78924.77681411   -78638.09156604
  entropy T*S    EENTRO =        -0.00000000
  eigenvalues    EBANDS =     -2667.36198300
  atomic energy  EATOM  =      8557.41276814
  ---------------------------------------------------
  free energy    TOTEN  =      -393.78484479 eV

  energy without entropy =     -393.78484479  energy(sigma->0) =     -393.78484479


--------------------------------------------------------------------------------------------------------




--------------------------------------- Iteration      1(  19)  ---------------------------------------


    POTLOK:  cpu time    4.2318: real time    4.2616
    SETDIJ:  cpu time    0.0528: real time    0.0530
    TRIAL :  cpu time    1.1658: real time    1.1768
    CORREC:  cpu time    4.7333: real time    4.7683
    CHARGE:  cpu time    0.1832: real time    0.1850
    --------------------------------------------
      LOOP:  cpu time   10.4281: real time   10.5139

 eigenvalue-minimisations  :     0
 total energy-change (2. order) :-0.8141380E-04  (-0.3409640E-04)
 number of electron     216.0000000 magnetization 
 augmentation part       -0.3562085 magnetization 

 Free energy of the ion-electron system (eV)
  ---------------------------------------------------
  alpha Z        PSCENC =        47.94900195
  Ewald energy   TEWEN  =     47538.22437387
  -Hartree energ DENC   =    -54542.08387049
  -exchange      EXHF   =         0.00000000
  -V(xc)+E(xc)   XCENC  =       385.33950657
  PAW double counting   =     78947.52764808   -78660.84020152
  entropy T*S    EENTRO =        -0.00000000
  eigenvalues    EBANDS =     -2667.31415281
  atomic energy  EATOM  =      8557.41276814
  ---------------------------------------------------
  free energy    TOTEN  =      -393.78492620 eV

  energy without entropy =     -393.78492620  energy(sigma->0) =     -393.78492620


--------------------------------------------------------------------------------------------------------




--------------------------------------- Iteration      1(  20)  ---------------------------------------


    POTLOK:  cpu time    4.2621: real time    4.2918
    SETDIJ:  cpu time    0.0526: real time    0.0529
    TRIAL :  cpu time    1.1684: real time    1.1792
    CORREC:  cpu time    4.7175: real time    4.7541
    CHARGE:  cpu time    0.1817: real time    0.1835
    --------------------------------------------
      LOOP:  cpu time   10.4321: real time   10.5139

 eigenvalue-minimisations  :     0
 total energy-change (2. order) :-0.3425826E-04  (-0.1650822E-04)
 number of electron     216.0000000 magnetization 
 augmentation part       -0.3561742 magnetization 

 Free energy of the ion-electron system (eV)
  ---------------------------------------------------
  alpha Z        PSCENC =        47.94900195
  Ewald energy   TEWEN  =     47538.22437387
  -Hartree energ DENC   =    -54542.01545608
  -exchange      EXHF   =         0.00000000
  -V(xc)+E(xc)   XCENC  =       385.33788962
  PAW double counting   =     78972.80441270   -78686.11609248
  entropy T*S    EENTRO =        -0.00000000
  eigenvalues    EBANDS =     -2667.38185818
  atomic energy  EATOM  =      8557.41276814
  ---------------------------------------------------
  free energy    TOTEN  =      -393.78496046 eV

  energy without entropy =     -393.78496046  energy(sigma->0) =     -393.78496046


--------------------------------------------------------------------------------------------------------




--------------------------------------- Iteration      1(  21)  ---------------------------------------


    POTLOK:  cpu time    4.2440: real time    4.2740
    SETDIJ:  cpu time    0.0525: real time    0.0527
    TRIAL :  cpu time    1.1655: real time    1.1764
    CORREC:  cpu time    4.7014: real time    4.7367
    CHARGE:  cpu time    0.1827: real time    0.1844
    --------------------------------------------
      LOOP:  cpu time   10.3497: real time   10.4449

 eigenvalue-minimisations  :     0
 total energy-change (2. order) :-0.1651976E-04  (-0.8023414E-05)
 number of electron     216.0000000 magnetization 
 augmentation part       -0.3561672 magnetization 

 Free energy of the ion-electron system (eV)
  ---------------------------------------------------
  alpha Z        PSCENC =        47.94900195
  Ewald energy   TEWEN  =     47538.22437387
  -Hartree energ DENC   =    -54541.99155985
  -exchange      EXHF   =         0.00000000
  -V(xc)+E(xc)   XCENC  =       385.33812843
  PAW double counting   =     78987.96973527   -78701.28197200
  entropy T*S    EENTRO =        -0.00000000
  eigenvalues    EBANDS =     -2667.40545279
  atomic energy  EATOM  =      8557.41276814
  ---------------------------------------------------
  free energy    TOTEN  =      -393.78497698 eV

  energy without entropy =     -393.78497698  energy(sigma->0) =     -393.78497698


--------------------------------------------------------------------------------------------------------




--------------------------------------- Iteration      1(  22)  ---------------------------------------


    POTLOK:  cpu time    4.2297: real time    4.2620
    SETDIJ:  cpu time    0.0527: real time    0.0529
    TRIAL :  cpu time    1.1657: real time    1.1765
    CORREC:  cpu time    4.7337: real time    4.7717
    CHARGE:  cpu time    0.1825: real time    0.1842
    --------------------------------------------
      LOOP:  cpu time   10.4121: real time   10.5010

 eigenvalue-minimisations  :     0
 total energy-change (2. order) :-0.7974173E-05  (-0.3543551E-05)
 number of electron     216.0000000 magnetization 
 augmentation part       -0.3561565 magnetization 

 Free energy of the ion-electron system (eV)
  ---------------------------------------------------
  alpha Z        PSCENC =        47.94900195
  Ewald energy   TEWEN  =     47538.22437387
  -Hartree energ DENC   =    -54541.94293009
  -exchange      EXHF   =         0.00000000
  -V(xc)+E(xc)   XCENC  =       385.33678763
  PAW double counting   =     78991.77232274   -78705.08479572
  entropy T*S    EENTRO =        -0.00000000
  eigenvalues    EBANDS =     -2667.45251348
  atomic energy  EATOM  =      8557.41276814
  ---------------------------------------------------
  free energy    TOTEN  =      -393.78498495 eV

  energy without entropy =     -393.78498495  energy(sigma->0) =     -393.78498495


--------------------------------------------------------------------------------------------------------




--------------------------------------- Iteration      1(  23)  ---------------------------------------


    POTLOK:  cpu time    4.2411: real time    4.2728
    SETDIJ:  cpu time    0.0526: real time    0.0528
    TRIAL :  cpu time    1.1766: real time    1.1895
    CORREC:  cpu time    4.7057: real time    4.7435
    CHARGE:  cpu time    0.1827: real time    0.1846
    --------------------------------------------
      LOOP:  cpu time   10.4041: real time   10.4889

 eigenvalue-minimisations  :     0
 total energy-change (2. order) :-0.3528185E-05  (-0.1458698E-05)
 number of electron     216.0000000 magnetization 
 augmentation part       -0.3561609 magnetization 

 Free energy of the ion-electron system (eV)
  ---------------------------------------------------
  alpha Z        PSCENC =        47.94900195
  Ewald energy   TEWEN  =     47538.22437387
  -Hartree energ DENC   =    -54541.93022270
  -exchange      EXHF   =         0.00000000
  -V(xc)+E(xc)   XCENC  =       385.33670009
  PAW double counting   =     78989.72685009   -78703.03957738
  entropy T*S    EENTRO =        -0.00000000
  eigenvalues    EBANDS =     -2667.46488254
  atomic energy  EATOM  =      8557.41276814
  ---------------------------------------------------
  free energy    TOTEN  =      -393.78498848 eV

  energy without entropy =     -393.78498848  energy(sigma->0) =     -393.78498848


--------------------------------------------------------------------------------------------------------




--------------------------------------- Iteration      1(  24)  ---------------------------------------


    POTLOK:  cpu time    4.2123: real time    4.2425
    SETDIJ:  cpu time    0.0529: real time    0.0530
    TRIAL :  cpu time    1.1648: real time    1.1757
    CORREC:  cpu time    4.7159: real time    4.7506
    CHARGE:  cpu time    0.1830: real time    0.1848
    --------------------------------------------
      LOOP:  cpu time   10.4000: real time   10.4793

 eigenvalue-minimisations  :     0
 total energy-change (2. order) :-0.1450011E-05  (-0.6760204E-06)
 number of electron     216.0000000 magnetization 
 augmentation part       -0.3561703 magnetization 

 Free energy of the ion-electron system (eV)
  ---------------------------------------------------
  alpha Z        PSCENC =        47.94900195
  Ewald energy   TEWEN  =     47538.22437387
  -Hartree energ DENC   =    -54541.92303756
  -exchange      EXHF   =         0.00000000
  -V(xc)+E(xc)   XCENC  =       385.33656365
  PAW double counting   =     78986.80038566   -78700.11313416
  entropy T*S    EENTRO =        -0.00000000
  eigenvalues    EBANDS =     -2667.47191149
  atomic energy  EATOM  =      8557.41276814
  ---------------------------------------------------
  free energy    TOTEN  =      -393.78498993 eV

  energy without entropy =     -393.78498993  energy(sigma->0) =     -393.78498993


--------------------------------------------------------------------------------------------------------




--------------------------------------- Iteration      1(  25)  ---------------------------------------


    POTLOK:  cpu time    4.2365: real time    4.2663
    SETDIJ:  cpu time    0.0526: real time    0.0528
    TRIAL :  cpu time    1.1683: real time    1.1793
    CORREC:  cpu time    4.7341: real time    4.7698
    CHARGE:  cpu time    0.1808: real time    0.1826
    --------------------------------------------
      LOOP:  cpu time   10.4190: real time   10.4990

 eigenvalue-minimisations  :     0
 total energy-change (2. order) :-0.6567861E-06  (-0.3145614E-06)
 number of electron     216.0000000 magnetization 
 augmentation part       -0.3561746 magnetization 

 Free energy of the ion-electron system (eV)
  ---------------------------------------------------
  alpha Z        PSCENC =        47.94900195
  Ewald energy   TEWEN  =     47538.22437387
  -Hartree energ DENC   =    -54541.92753448
  -exchange      EXHF   =         0.00000000
  -V(xc)+E(xc)   XCENC  =       385.33658241
  PAW double counting   =     78984.77336558   -78698.08610227
  entropy T*S    EENTRO =        -0.00000000
  eigenvalues    EBANDS =     -2667.46744580
  atomic energy  EATOM  =      8557.41276814
  ---------------------------------------------------
  free energy    TOTEN  =      -393.78499059 eV

  energy without entropy =     -393.78499059  energy(sigma->0) =     -393.78499059


--------------------------------------------------------------------------------------------------------




--------------------------------------- Iteration      1(  26)  ---------------------------------------


    POTLOK:  cpu time    4.2398: real time    4.2729
    SETDIJ:  cpu time    0.0526: real time    0.0528
    TRIAL :  cpu time    1.1662: real time    1.1786
    CORREC:  cpu time    4.7323: real time    4.7700
    CHARGE:  cpu time    0.1822: real time    0.1840
    --------------------------------------------
      LOOP:  cpu time   10.4330: real time   10.5200

 eigenvalue-minimisations  :     0
 total energy-change (2. order) :-0.2988236E-06  (-0.1616390E-06)
 number of electron     216.0000000 magnetization 
 augmentation part       -0.3561782 magnetization 

 Free energy of the ion-electron system (eV)
  ---------------------------------------------------
  alpha Z        PSCENC =        47.94900195
  Ewald energy   TEWEN  =     47538.22437387
  -Hartree energ DENC   =    -54541.93436762
  -exchange      EXHF   =         0.00000000
  -V(xc)+E(xc)   XCENC  =       385.33679772
  PAW double counting   =     78983.84695502   -78697.15973809
  entropy T*S    EENTRO =        -0.00000000
  eigenvalues    EBANDS =     -2667.46078188
  atomic energy  EATOM  =      8557.41276814
  ---------------------------------------------------
  free energy    TOTEN  =      -393.78499089 eV

  energy without entropy =     -393.78499089  energy(sigma->0) =     -393.78499089


--------------------------------------------------------------------------------------------------------




--------------------------------------- Iteration      1(  27)  ---------------------------------------


    POTLOK:  cpu time    4.2277: real time    4.2575
    SETDIJ:  cpu time    0.0530: real time    0.0532
    TRIAL :  cpu time    1.1624: real time    1.1749
    CORREC:  cpu time    4.7134: real time    4.7502
    CHARGE:  cpu time    0.1833: real time    0.1852
    --------------------------------------------
      LOOP:  cpu time   10.3669: real time   10.4874

 eigenvalue-minimisations  :     0
 total energy-change (2. order) :-0.1476292E-06  (-0.6393831E-07)
 number of electron     216.0000000 magnetization 
 augmentation part       -0.3561774 magnetization 

 Free energy of the ion-electron system (eV)
  ---------------------------------------------------
  alpha Z        PSCENC =        47.94900195
  Ewald energy   TEWEN  =     47538.22437387
  -Hartree energ DENC   =    -54541.93713389
  -exchange      EXHF   =         0.00000000
  -V(xc)+E(xc)   XCENC  =       385.33678360
  PAW double counting   =     78983.64304086   -78696.95582876
  entropy T*S    EENTRO =        -0.00000000
  eigenvalues    EBANDS =     -2667.45799682
  atomic energy  EATOM  =      8557.41276814
  ---------------------------------------------------
  free energy    TOTEN  =      -393.78499103 eV

  energy without entropy =     -393.78499103  energy(sigma->0) =     -393.78499103


--------------------------------------------------------------------------------------------------------




--------------------------------------- Iteration      1(  28)  ---------------------------------------


    POTLOK:  cpu time    4.2705: real time    4.3002
    SETDIJ:  cpu time    0.0528: real time    0.0530
    TRIAL :  cpu time    1.1659: real time    1.1769
    CORREC:  cpu time    4.7186: real time    4.7542
    EDDIAG:  cpu time    0.4358: real time    0.4407
    CHARGE:  cpu time    0.1816: real time    0.1834
[...]
      16 -86.7800      17 -86.7861      18 -86.7882      19 -86.7913      20 -86.7861
      21 -86.7749      22 -86.7778      23 -86.7967      24 -86.7967      25 -86.7819
      26 -86.7842      27 -86.7823      28 -86.7950      29 -86.7795      30 -86.7817
      31 -86.8028      32 -86.7944      33 -86.7886      34 -86.7836      35 -86.7818
      36 -86.7848      37 -86.7870      38 -86.7901      39 -86.7901      40 -86.7880
      41 -86.7887      42 -86.7920      43 -86.7855      44 -86.7921      45 -86.7812
      46 -86.7800      47 -86.7865      48 -86.7835      49 -86.7889      50 -86.7869
      51 -91.0522      52-120.8191      53-120.8210
 
 
 
 E-fermi :  -4.3622     XC(G=0):  -2.2278     alpha+bet : -1.6890

 Fermi energy:        -4.3621916781

 k-point     1 :       0.0000    0.0000    0.0000
  band No.  band energies     occupation 
      1     -27.8923      2.00000
      2     -26.9410      2.00000
      3     -22.3977      2.00000
      4     -21.4804      2.00000
      5     -21.4746      2.00000
      6     -21.4682      2.00000
      7     -21.4680      2.00000
      8     -21.4652      2.00000
      9     -21.4628      2.00000
     10     -19.6599      2.00000
     11     -19.6584      2.00000
     12     -19.6535      2.00000
     13     -19.6526      2.00000
     14     -19.6512      2.00000
     15     -19.6509      2.00000
     16     -18.7776      2.00000
     17     -18.7762      2.00000
     18     -18.7745      2.00000
     19     -18.7724      2.00000
     20     -18.7717      2.00000
     21     -18.7713      2.00000
     22     -16.6822      2.00000
     23     -16.6810      2.00000
     24     -16.6783      2.00000
     25     -16.6779      2.00000
     26     -16.6742      2.00000
     27     -16.6737      2.00000
     28     -15.6369      2.00000
     29     -15.6361      2.00000
     30     -15.6330      2.00000
     31     -15.6322      2.00000
     32     -15.6314      2.00000
     33     -15.6310      2.00000
     34     -14.3227      2.00000
     35     -14.3223      2.00000
     36     -14.3217      2.00000
     37     -14.3202      2.00000
     38     -14.3200      2.00000
     39     -14.3195      2.00000
     40     -12.7897      2.00000
     41     -12.0263      2.00000
     42     -12.0258      2.00000
     43     -12.0235      2.00000
     44     -12.0232      2.00000
     45     -12.0230      2.00000
     46     -12.0228      2.00000
     47     -11.8593      2.00000
     48     -11.8583      2.00000
     49     -11.8566      2.00000
     50     -11.8562      2.00000
     51     -11.8534      2.00000
     52     -11.8530      2.00000
     53     -11.6806      2.00000
     54     -11.5699      2.00000
     55     -11.5074      2.00000
     56     -10.5532      2.00000
     57     -10.5055      2.00000
     58     -10.5053      2.00000
     59     -10.5046      2.00000
     60     -10.5041      2.00000
     61     -10.5032      2.00000
     62     -10.5029      2.00000
     63      -9.4698      2.00000
     64      -9.4645      2.00000
     65      -9.4626      2.00000
     66      -9.4586      2.00000
     67      -9.4578      2.00000
     68      -9.4355      2.00000
     69      -9.3262      2.00000
     70      -9.3227      2.00000
     71      -9.3220      2.00000
     72      -9.3214      2.00000
     73      -9.3207      2.00000
     74      -9.3191      2.00000
     75      -9.2685      2.00000
     76      -9.2678      2.00000
     77      -9.2675      2.00000
     78      -9.2653      2.00000
     79      -9.2649      2.00000
     80      -9.2636      2.00000
     81      -8.0511      2.00000
     82      -8.0184      2.00000
     83      -7.7142      2.00000
     84      -7.7140      2.00000
     85      -7.7129      2.00000
     86      -7.7112      2.00000
     87      -7.7088      2.00000
     88      -7.7087      2.00000
     89      -7.3550      2.00000
     90      -7.3508      2.00000
     91      -7.3426      2.00000
     92      -7.3418      2.00000
     93      -7.3398      2.00000
     94      -7.2994      2.00000
     95      -6.4659      2.00000
     96      -6.4628      2.00000
     97      -6.4579      2.00000
     98      -6.4539      2.00000
     99      -6.4510      2.00000
    100      -6.4347      2.00000
    101      -6.2893      2.00000
    102      -6.2870      2.00000
    103      -4.5014      2.00000
    104      -4.4973      2.00000
    105      -4.4937      2.00000
    106      -4.4915      2.00000
    107      -4.4861      2.00000
    108      -4.4854      2.00000
    109      -1.7191      0.00000
    110      -1.7166      0.00000
    111      -1.7063      0.00000
    112      -1.7042      0.00000
    113      -1.7020      0.00000
    114      -1.6999      0.00000
    115      -0.5282      0.00000
    116       0.1174      0.00000
    117       0.1274      0.00000
    118       0.1351      0.00000
    119       0.1418      0.00000
    120       0.1423      0.00000
    121       0.1455      0.00000
    122       0.1887      0.00000
    123       0.5984      0.00000
    124       0.7328      0.00000
    125       0.8135      0.00000
    126       0.8589      0.00000
    127       0.8967      0.00000
    128       0.9086      0.00000
    129       0.9698      0.00000
    130       1.0376      0.00000
    131       1.3959      0.00000
    132       1.5545      0.00000
    133       1.6644      0.00000
    134       1.7311      0.00000
    135       1.8395      0.00000
    136       1.8710      0.00000


--------------------------------------------------------------------------------------------------------


 soft charge-density along one line, spin component           1
         0         1         2         3         4         5         6         7         8         9
 total charge-density along one line
 
 pseudopotential strength for first ion, spin component:           1
 12.620  21.239  -0.000  -0.000   0.000  -0.000   0.000   0.000
 21.239  35.743  -0.000  -0.000   0.000  -0.000   0.000   0.000
 -0.000  -0.000  -3.327  -0.000   0.000  -5.962  -0.000   0.000
 -0.000  -0.000  -0.000  -3.362  -0.000  -0.000  -6.024  -0.000
  0.000   0.000   0.000  -0.000  -3.327   0.000  -0.000  -5.962
 -0.000  -0.000  -5.962  -0.000   0.000 -10.663  -0.000   0.000
  0.000   0.000  -0.000  -6.024  -0.000  -0.000 -10.774  -0.000
  0.000   0.000   0.000  -0.000  -5.962   0.000  -0.000 -10.663
 total augmentation occupancy for first ion, spin component:           1
  6.241  -2.004  -0.000  -0.002   0.000   0.000   0.001  -0.000
 -2.004   0.691   0.000   0.001  -0.000  -0.000  -0.000   0.000
 -0.000   0.000   5.992  -0.007   0.000  -1.878   0.003  -0.000
 -0.002   0.001  -0.007   2.310  -0.000   0.003  -0.483   0.000
  0.000  -0.000   0.000  -0.000   5.991  -0.000   0.000  -1.878
  0.000  -0.000  -1.878   0.003  -0.000   0.606  -0.001   0.000
  0.001  -0.000   0.003  -0.483   0.000  -0.001   0.111   0.000
 -0.000   0.000  -0.000   0.000  -1.878   0.000   0.000   0.606


------------------------ aborting loop because EDIFF is reached ----------------------------------------


    FORLOC:  cpu time    0.0678: real time    0.0684
    FORNL :  cpu time    0.8428: real time    0.8477
    FORCOR:  cpu time    4.2987: real time    4.3396
    OFIELD:  cpu time    0.0015: real time    0.0016

 VOLUME and BASIS-vectors are now :
 -----------------------------------------------------------------------------
  energy-cutoff  :     1000.00
  volume of cell :     3288.85
      direct lattice vectors                 reciprocal lattice vectors
    12.325000000  0.000000000  0.000000000     0.081135903  0.046843835  0.000000000
    -6.162500000 10.673763102  0.000000000     0.000000000  0.093687670  0.000000000
     0.000000000  0.000000000 25.000000000     0.000000000  0.000000000  0.040000000

  length of vectors
    12.325000000 12.325000000 25.000000000     0.093687670  0.093687670  0.040000000


 FORCES acting on ions:
    Electron-Ion                     Ewald-Force                    Non-Local-Force
 -----------------------------------------------------------------------------------------------
   0.112E+02 0.983E+01 0.255E+02   -.112E+02 -.982E+01 -.255E+02   0.148E-01 -.633E-02 0.134E-01
   0.184E+02 0.914E+01 0.333E+02   -.184E+02 -.913E+01 -.333E+02   0.202E-01 -.144E-01 -.484E-02
   0.915E+01 0.233E+02 0.412E+02   -.914E+01 -.234E+02 -.412E+02   -.211E-02 0.472E-01 0.413E-01
   0.146E+02 0.214E+02 0.661E+02   -.147E+02 -.214E+02 -.662E+02   0.558E-01 0.210E-01 0.793E-01
   0.122E+02 0.289E+01 0.255E+02   -.122E+02 -.287E+01 -.255E+02   0.397E-02 -.177E-01 -.362E-02
   0.128E+02 -.218E+01 0.261E+02   -.128E+02 0.219E+01 -.261E+02   -.217E-01 -.475E-02 -.129E-01
   0.250E+02 0.102E+02 0.567E+02   -.250E+02 -.101E+02 -.567E+02   0.549E-01 -.679E-01 -.142E-01
   0.247E+02 -.833E+01 0.604E+02   -.247E+02 0.837E+01 -.603E+02   0.421E-02 -.328E-01 -.117E+00
   -.101E+02 0.216E+02 0.424E+02   0.102E+02 -.216E+02 -.423E+02   -.231E-01 -.969E-02 -.356E-01
   -.186E+02 0.159E+02 0.643E+02   0.187E+02 -.160E+02 -.642E+02   -.722E-01 0.411E-01 -.975E-01
   0.299E+01 -.264E+01 0.207E+02   -.297E+01 0.263E+01 -.206E+02   -.609E-02 0.477E-02 -.567E-02
   0.238E+01 -.193E+01 0.192E+02   -.237E+01 0.193E+01 -.192E+02   -.160E-01 0.692E-02 0.168E-02
   0.947E+01 -.227E+02 0.690E+02   -.957E+01 0.228E+02 -.689E+02   0.938E-01 -.226E-01 -.113E+00
   0.435E+01 -.236E+02 0.420E+02   -.438E+01 0.236E+02 -.420E+02   0.285E-01 0.436E-02 -.365E-01
   -.109E+02 0.686E+01 0.250E+02   0.109E+02 -.685E+01 -.250E+02   0.157E-01 -.853E-02 -.556E-02
   -.162E+02 0.457E+01 0.293E+02   0.162E+02 -.457E+01 -.292E+02   -.120E-04 0.101E-01 -.234E-01
   -.162E+01 -.665E+00 0.185E+02   0.163E+01 0.662E+00 -.185E+02   -.599E-02 0.339E-03 0.104E-02
   0.898E+00 0.598E+01 0.197E+02   -.893E+00 -.598E+01 -.197E+02   -.932E-02 0.425E-02 0.880E-02
   -.335E+01 -.193E+02 0.318E+02   0.332E+01 0.194E+02 -.318E+02   0.304E-01 -.656E-02 0.129E-01
   -.142E+01 -.929E+01 0.218E+02   0.141E+01 0.929E+01 -.218E+02   0.606E-02 -.624E-02 -.179E-02
   0.192E+02 -.835E+01 0.361E+02   -.192E+02 0.835E+01 -.360E+02   -.928E-02 -.384E-02 -.474E-01
   0.113E+02 -.979E+01 0.281E+02   -.113E+02 0.977E+01 -.280E+02   -.139E-01 0.183E-01 -.148E-01
   -.469E+01 0.106E+02 0.849E+02   0.477E+01 -.106E+02 -.850E+02   -.743E-01 0.562E-01 0.271E-01
   -.830E+01 -.168E+02 0.801E+02   0.825E+01 0.169E+02 -.801E+02   0.529E-01 -.687E-01 0.388E-01
   0.522E+01 -.231E+01 0.208E+02   -.519E+01 0.230E+01 -.208E+02   -.116E-01 0.239E-02 -.100E-01
   0.962E+00 0.468E+01 0.210E+02   -.954E+00 -.468E+01 -.210E+02   -.137E-01 0.646E-02 -.113E-02
   -.249E+02 0.286E+01 0.470E+02   0.249E+02 -.291E+01 -.470E+02   -.182E-02 0.329E-01 -.413E-01
   -.227E+02 -.972E+01 0.421E+02   0.227E+02 0.969E+01 -.422E+02   -.410E-01 0.351E-01 0.196E-01
   0.690E+01 -.141E+02 0.294E+02   -.691E+01 0.141E+02 -.294E+02   0.106E-01 0.101E-01 -.192E-01
   0.642E+00 -.520E+01 0.222E+02   -.654E+00 0.519E+01 -.222E+02   0.293E-02 0.101E-01 -.949E-02
   -.185E+02 -.200E+02 0.524E+02   0.186E+02 0.200E+02 -.525E+02   -.458E-01 -.291E-01 0.649E-01
   -.104E+02 -.190E+02 0.340E+02   0.104E+02 0.190E+02 -.341E+02   -.654E-03 -.290E-01 0.264E-01
   0.607E+00 0.250E+01 0.191E+02   -.614E+00 -.250E+01 -.191E+02   0.123E-01 -.880E-02 0.382E-02
   0.174E+01 0.253E+01 0.206E+02   -.174E+01 -.252E+01 -.206E+02   0.933E-03 -.466E-02 -.633E-02
   -.759E+01 0.938E+00 0.226E+02   0.759E+01 -.946E+00 -.226E+02   0.110E-01 0.267E-02 -.210E-02
   -.651E+01 -.260E+01 0.220E+02   0.652E+01 0.259E+01 -.219E+02   -.117E-01 0.916E-02 -.285E-02
   -.133E+02 -.694E+01 0.261E+02   0.133E+02 0.694E+01 -.261E+02   -.169E-01 0.454E-02 0.176E-02
   -.764E+01 -.621E+01 0.216E+02   0.765E+01 0.620E+01 -.216E+02   -.117E-01 0.345E-02 0.105E-01
   -.719E+01 -.940E+01 0.232E+02   0.720E+01 0.941E+01 -.232E+02   -.120E-01 -.842E-02 0.770E-02
   -.106E+01 -.223E+01 0.197E+02   0.105E+01 0.223E+01 -.197E+02   0.222E-02 -.250E-02 0.821E-02
   0.270E+01 0.645E+01 0.206E+02   -.269E+01 -.646E+01 -.206E+02   -.411E-02 0.102E-01 0.787E-02
   0.901E+01 0.141E+02 0.272E+02   -.903E+01 -.141E+02 -.272E+02   0.124E-01 0.131E-01 0.167E-01
   0.719E+00 0.115E+02 0.230E+02   -.708E+00 -.115E+02 -.230E+02   -.905E-02 0.937E-02 -.117E-02
   0.137E+00 0.218E+02 0.351E+02   -.103E+00 -.218E+02 -.352E+02   -.383E-01 0.126E-01 0.157E-01
   -.219E+01 0.436E+01 0.221E+02   0.219E+01 -.435E+01 -.221E+02   0.709E-03 -.850E-02 -.683E-02
   -.929E+01 0.118E+02 0.280E+02   0.929E+01 -.118E+02 -.280E+02   -.857E-02 -.282E-02 -.175E-01
   -.157E+01 -.441E+01 0.204E+02   0.156E+01 0.441E+01 -.204E+02   0.152E-01 -.210E-02 0.106E-02
   -.410E+01 0.167E+01 0.196E+02   0.408E+01 -.167E+01 -.196E+02   0.942E-02 -.124E-02 -.873E-02
   0.318E+00 -.274E+01 0.193E+02   -.321E+00 0.273E+01 -.193E+02   0.840E-02 -.377E-02 0.581E-02
   0.432E+01 0.317E+01 0.196E+02   -.433E+01 -.317E+01 -.196E+02   0.628E-02 0.284E-02 0.343E-02
   0.164E+00 -.111E+00 -.411E+03   -.153E+00 0.103E+00 0.411E+03   -.150E-01 0.812E-02 -.525E-02
   -.229E+03 0.155E+03 -.629E+03   0.279E+03 -.190E+03 0.632E+03   -.511E+02 0.348E+02 -.322E+01
   0.229E+03 -.156E+03 -.607E+03   -.279E+03 0.190E+03 0.603E+03   0.511E+02 -.348E+02 0.331E+01
 -----------------------------------------------------------------------------------------------
   0.386E-01 -.290E-02 0.147E+00   0.114E-12 -.114E-12 0.227E-12   -.387E-01 0.284E-02 -.150E+00
 
 
 POSITION                                       TOTAL-FORCE (eV/Angst)
 -----------------------------------------------------------------------------------
     11.98348      0.00342      0.01417         0.001566     -0.000552     -0.000092
     -0.34154      1.42665      0.01100         0.001715      0.003027      0.001175
      2.12355      0.00315      0.01249         0.001724     -0.006358      0.005569
      2.12326      1.42653      0.00641        -0.000956      0.004742     -0.003350
     10.75099      2.13819      0.01213         0.000471     -0.003831      0.002705
     -1.57382      3.56123      0.01110        -0.004855      0.006842      0.001207
      0.89078      2.13854      0.00548        -0.005235      0.004683     -0.005965
      0.89099      3.56147      0.00181        -0.005313      0.009331     -0.020941
      4.58864      0.00346      0.01135         0.007555      0.007795     -0.001168
      4.58894      1.42623      0.00646        -0.000855     -0.000188     -0.027909
      9.51854      4.27281      0.01369         0.007564     -0.007701      0.000507
     -2.80632      5.69591      0.01434        -0.008810      0.004957      0.001290
      2.12300      4.27302      0.00000        -0.005041      0.008850     -0.036989
      2.12335      5.69594      0.00581        -0.004557     -0.014022     -0.000247
      7.05344      0.00333      0.01399         0.005243     -0.002242      0.002653
      7.05353      1.42635      0.01368        -0.005224      0.005155      0.000583
      8.28610      6.40752      0.01601         0.003847     -0.002586     -0.000202
     -4.03885      7.83070      0.01636        -0.003207      0.003414      0.000335
      3.35586      6.40753      0.01007         0.002838      0.001232      0.002990
      3.35599      7.83072      0.01320        -0.002911     -0.000407      0.000316
     -0.34146      4.27290      0.00723         0.013059     -0.008915      0.000022
     -0.34138      5.69591      0.00946        -0.006593      0.003099      0.003732
      3.35624      2.13791      0.00222         0.009289     -0.003746     -0.046768
      3.35573      3.56155      0.00139        -0.004648      0.003487     -0.031953
     -1.57395      6.40758      0.01311         0.010332     -0.003586     -0.000595
     -1.57385      7.83068      0.01438        -0.004774      0.004273      0.000616
      5.82093      2.13784      0.01033        -0.001976     -0.009618     -0.004432
      5.82114      3.56097      0.01156        -0.000117     -0.000570      0.004372
      0.89092      6.40755      0.00907         0.003524     -0.000241      0.003086
      0.89106      7.83068      0.01235        -0.008913     -0.000370      0.000546
      4.58871      4.27293      0.00850         0.000099     -0.005421      0.004812
      4.58852      5.69606      0.01149         0.001202      0.009197      0.002490
      9.51845      0.00337      0.01490         0.005940     -0.005825      0.000659
      9.51855      1.42644      0.01438        -0.004373      0.009419     -0.000176
      8.28593      2.13803      0.01453         0.003133     -0.005720      0.001564
      8.28613      3.56115      0.01464        -0.004647      0.001571      0.000768
      7.05356      4.27269      0.01457         0.003216     -0.000749      0.001530
      7.05362      5.69588      0.01553        -0.002721      0.000731      0.000149
      5.82112      6.40755      0.01489        -0.000806      0.001275      0.000095
      5.82102      7.83073      0.01579         0.000129      0.002160     -0.000007
      7.05363      8.54227      0.01631        -0.001970     -0.001275      0.001328
     -5.27149      9.96549      0.01495        -0.001969     -0.002869     -0.000810
     -2.80638      8.54234      0.01558         0.002598     -0.001067      0.000096
     -2.80627      9.96553      0.01362        -0.002936     -0.000063      0.003132
     -0.34149      8.54239      0.01378         0.006202     -0.001226      0.000904
     -0.34138      9.96550      0.01354        -0.006895      0.002918      0.002719
      2.12343      8.54232      0.01336         0.006484     -0.001291      0.001130
      2.12354      9.96544      0.01469        -0.008110      0.004056     -0.001850
      4.58846      8.54235      0.01505         0.005891     -0.004706      0.001327
      4.58853      9.96550      0.01517        -0.003081      0.003955      0.000935
      3.04930      2.68154      3.14980        -0.003293      0.000403      0.026982
      4.02070      2.02068      3.21422        -0.441772      0.308901      0.010552
      2.07767      3.34267      3.09035         0.452939     -0.320331      0.090575
 -----------------------------------------------------------------------------------
    total drift:                               -0.000108     -0.000060     -0.002082


--------------------------------------------------------------------------------------------------------



  FREE ENERGIE OF THE ION-ELECTRON SYSTEM (eV)
  ---------------------------------------------------
  free  energy   TOTEN  =      -393.78499110 eV

  energy  without entropy=     -393.78499110  energy(sigma->0) =     -393.78499110
 


--------------------------------------------------------------------------------------------------------


    POTLOK:  cpu time    4.5804: real time    4.6112


--------------------------------------------------------------------------------------------------------


     LOOP+:  cpu time  294.0940: real time  296.8389
    4ORBIT:  cpu time    0.0000: real time    0.0000

 total amount of memory used by VASP MPI-rank0   100580. kBytes
=======================================================================

   base      :      30000. kBytes
   nonl-proj :       8229. kBytes
   fftplans  :      18352. kBytes
   grid      :      30208. kBytes
   one-center:          6. kBytes
   wavefun   :      13785. kBytes
 
  
  
 General timing and accounting informations for this job:
 ========================================================
  
                  Total CPU time used (sec):      336.850
                            User time (sec):      311.865
                          System time (sec):       24.986
                         Elapsed time (sec):      340.880
  
                   Maximum memory used (kb):      777568.
                   Average memory used (kb):          N/A
  
                          Minor page faults:       414481
                          Major page faults:           91
                 Voluntary context switches:         3851
