 vasp.6.2.1 16May21 (build Nov 06 2021 14:46:37) complex                        
  
 executed on             LinuxIFC date 2025.04.16  19:31:16
 running on  112 total cores
 distrk:  each k-point on  112 cores,    1 groups
 distr:  one band on NCORE=  28 cores,    4 groups


--------------------------------------------------------------------------------------------------------


 INCAR:
   NPAR = 4
   ALGO = Conjugate
   ISMEAR = 0
   SIGMA = 0.01
   PREC = Accurate
   EDIFF = 1E-7
   ENCUT = 1000
   ISIF = 0
   GGA = ML
   LUSE_VDW = .TRUE.
   ZAB_VDW = -1.8867
   AGGAC = 0.0000
   LASPH = .TRUE.
   SYMPREC = 1E-7
   LWAVE = .FALSE.
   LCHARGE = .FALSE.

 POTCAR:    PAW_PBE C_h 06Feb2004                 
 POTCAR:    PAW_PBE O_h 06Feb2004                 
 -----------------------------------------------------------------------------
|                                                                             |
|           W    W    AA    RRRRR   N    N  II  N    N   GGGG   !!!           |
|           W    W   A  A   R    R  NN   N  II  NN   N  G    G  !!!           |
|           W    W  A    A  R    R  N N  N  II  N N  N  G       !!!           |
|           W WW W  AAAAAA  RRRRR   N  N N  II  N  N N  G  GGG   !            |
|           WW  WW  A    A  R   R   N   NN  II  N   NN  G    G                |
|           W    W  A    A  R    R  N    N  II  N    N   GGGG   !!!           |
|                                                                             |
|     For optimal performance we recommend to set                             |
|       NCORE = 2 up to number-of-cores-per-socket                            |
|     NCORE specifies how many cores store one orbital (NPAR=cpu/NCORE).      |
|     This setting can greatly improve the performance of VASP for DFT.       |
|     The default, NCORE=1 might be grossly inefficient on modern             |
|     multi-core architectures or massively parallel machines. Do your        |
|     own testing! More info at https://www.vasp.at/wiki/index.php/NCORE      |
|     Unfortunately you need to use the default for GW and RPA                |
|     calculations (for HF NCORE is supported but not extensively tested      |
|     yet).                                                                   |
|                                                                             |
 -----------------------------------------------------------------------------

 -----------------------------------------------------------------------------
|                                                                             |
|               ----> ADVICE to this user running VASP <----                  |
|                                                                             |
|     You have switched on vdW-DFT.                                           |
|     This routine was written and supplied by Jiri Klimes. We recommend      |
|     that you carefully read and cite the following publications:            |
|       J. Klimes, D.R. Bowler, A. Michelides                                 |
|          J. Phys.: Cond Matt. 22 022201 (2010)                              |
|       J. Klimes, D.R. Bowler, A. Michelides                                 |
|          Phys. Rev. B. 83, 195131 (2011)                                    |
|     and references therein.                                                 |
|                                                                             |
 -----------------------------------------------------------------------------

 POTCAR:    PAW_PBE C_h 06Feb2004                 
   VRHFIN =C: s2p2                                                                                  
   LEXCH  = PE                                                                                      
   EATOM  =   147.1560 eV,   10.8157 Ry                                                             
                                                                                                    
   TITEL  = PAW_PBE C_h 06Feb2004                                                                   
   LULTRA =        F    use ultrasoft PP ?                                                          
   IUNSCR =        1    unscreen: 0-lin 1-nonlin 2-no                                               
   RPACOR =    0.800    partial core radius                                                         
   POMASS =   12.011; ZVAL   =    4.000    mass and valenz                                          
   RCORE  =    1.100    outmost cutoff radius                                                       
   RWIGS  =    1.630; RWIGS  =    0.863    wigner-seitz radius (au A)                               
   ENMAX  =  700.000; ENMIN  =  500.000 eV                                                          
   ICORE  =        2    local potential                                                             
   LCOR   =        T    correct aug charges                                                         
   LPAW   =        T    paw PP                                                                      
   EAUG   =  946.768                                                                                
   DEXC   =    0.000                                                                                
   RMAX   =    1.128    core radius for proj-oper                                                   
   RAUG   =    1.300    factor for augmentation sphere                                              
   RDEP   =    1.162    radius for radial grids                                                     
   RDEPT  =    1.088    core radius for aug-charge                                                  
                                                                                                    
   Atomic configuration                                                                             
    4 entries                                                                                       
     n  l   j            E        occ.                                                              
     1  0  0.50      -273.3789   2.0000                                                             
     2  0  0.50       -13.7508   2.0000                                                             
     2  1  0.50        -5.2854   2.0000                                                             
     3  2  1.50        -5.4423   0.0000                                                             
   Description                                                                                      
     l       E           TYP  RCUT    TYP  RCUT                                                     
     0    -13.7508458     23  1.100                                                                 
     0     -8.2022199     23  1.100                                                                 
     1     -5.2854383     23  1.100                                                                 
     1      1.1560700     23  1.100                                                                 
     2     -5.4423304      7  1.100                                                                 
  local pseudopotential read in
  partial core-charges read in
  partial kinetic energy density read in
  atomic valenz-charges read in
  non local Contribution for L=           0  read in
    real space projection operators read in
  non local Contribution for L=           0  read in
    real space projection operators read in
  non local Contribution for L=           1  read in
    real space projection operators read in
  non local Contribution for L=           1  read in
    real space projection operators read in
    PAW grid and wavefunctions read in
 
   number of l-projection  operators is LMAX  =           4
   number of lm-projection operators is LMMAX =           8
 
 POTCAR:    PAW_PBE O_h 06Feb2004                 
   VRHFIN =O: s2p4                                                                                  
   LEXCH  = PE                                                                                      
   EATOM  =   432.3788 eV,   31.7789 Ry                                                             
                                                                                                    
   TITEL  = PAW_PBE O_h 06Feb2004                                                                   
   LULTRA =        F    use ultrasoft PP ?                                                          
   IUNSCR =        1    unscreen: 0-lin 1-nonlin 2-no                                               
   RPACOR =    0.800    partial core radius                                                         
   POMASS =   16.000; ZVAL   =    6.000    mass and valenz                                          
   RCORE  =    1.100    outmost cutoff radius                                                       
   RWIGS  =    1.400; RWIGS  =    0.741    wigner-seitz radius (au A)                               
   ENMAX  =  700.000; ENMIN  =  500.000 eV                                                          
   ICORE  =        2    local potential                                                             
   LCOR   =        T    correct aug charges                                                         
   LPAW   =        T    paw PP                                                                      
   EAUG   =  888.804                                                                                
   DEXC   =    0.000                                                                                
   RMAX   =    1.128    core radius for proj-oper                                                   
   RAUG   =    1.300    factor for augmentation sphere                                              
   RDEP   =    1.125    radius for radial grids                                                     
   RDEPT  =    1.088    core radius for aug-charge                                                  
                                                                                                    
   Atomic configuration                                                                             
    4 entries                                                                                       
     n  l   j            E        occ.                                                              
     1  0  0.50      -514.6923   2.0000                                                             
     2  0  0.50       -23.9615   2.0000                                                             
     2  1  0.50        -9.0305   4.0000                                                             
     3  2  1.50        -9.5241   0.0000                                                             
   Description                                                                                      
     l       E           TYP  RCUT    TYP  RCUT                                                     
     0    -23.9615319     23  1.100                                                                 
     0    -25.3221145     23  1.100                                                                 
     1     -9.0304911     23  1.100                                                                 
     1     -5.4802209     23  1.100                                                                 
     2     -9.5240782      7  1.100                                                                 
  local pseudopotential read in
  partial core-charges read in
  partial kinetic energy density read in
  atomic valenz-charges read in
  non local Contribution for L=           0  read in
    real space projection operators read in
  non local Contribution for L=           0  read in
    real space projection operators read in
  non local Contribution for L=           1  read in
    real space projection operators read in
  non local Contribution for L=           1  read in
    real space projection operators read in
    PAW grid and wavefunctions read in
 
   number of l-projection  operators is LMAX  =           4
   number of lm-projection operators is LMMAX =           8
 
 -----------------------------------------------------------------------------
|                                                                             |
|               ----> ADVICE to this user running VASP <----                  |
|                                                                             |
|     You have a (more or less) 'large supercell' and for larger cells it     |
|     might be more efficient to use real-space projection operators.         |
|     Therefore, try LREAL= Auto in the INCAR file.                           |
|     Mind: For very accurate calculation, you might also keep the            |
|     reciprocal projection scheme (i.e. LREAL=.FALSE.).                      |
|                                                                             |
 -----------------------------------------------------------------------------

 -----------------------------------------------------------------------------
|                                                                             |
|               ----> ADVICE to this user running VASP <----                  |
|                                                                             |
|     You enforced a specific xc type in the INCAR file but a different       |
|     type was found in the POTCAR file.                                      |
|     I HOPE YOU KNOW WHAT YOU ARE DOING!                                     |
|                                                                             |
 -----------------------------------------------------------------------------

  PAW_PBE C_h 06Feb2004                 :
 energy of atom  1       EATOM= -147.1560
 kinetic energy error for atom=    0.0031 (will be added to EATOM!!)
  PAW_PBE O_h 06Feb2004                 :
 energy of atom  2       EATOM= -432.3788
 kinetic energy error for atom=    0.0171 (will be added to EATOM!!)
 
 
 POSCAR:  C  O
  positions in cartesian coordinates
  No initial velocities read in
 exchange correlation table for  LEXCH =       44
   RHO(1)=    0.500       N(1)  =     2000
   RHO(2)=  100.500       N(2)  =     4000
 


--------------------------------------------------------------------------------------------------------


 ion  position               nearest neighbor table
   1  0.972  0.000  0.001-  50 1.42   2 1.42  42 1.42
   2  0.039  0.134  0.000-   5 1.42   7 1.42   1 1.42
   3  0.172  0.000  0.000-  42 1.42  44 1.42   4 1.42
   4  0.239  0.134  0.000-   7 1.42   3 1.42  23 1.42
   5  0.972  0.200  0.000-   6 1.42   2 1.42  34 1.42
   6  0.039  0.334  0.000-   5 1.42  21 1.42  11 1.42
   7  0.172  0.200  0.000-   8 1.42   2 1.42   4 1.42
   8  0.239  0.334  0.000-  13 1.42   7 1.42  21 1.42
   9  0.372  0.000  0.000-  10 1.42  44 1.42  46 1.42
  10  0.439  0.134  0.000-  27 1.42   9 1.42  23 1.42
  11  0.972  0.400  0.001-  12 1.42  36 1.42   6 1.42
  12  0.039  0.534  0.001-  25 1.42  11 1.42  17 1.42
  13  0.372  0.400  0.000-   8 1.42  14 1.42  24 1.42
  14  0.439  0.534  0.000-  13 1.42  29 1.42  19 1.42
  15  0.572  0.000  0.001-  46 1.42  16 1.42  48 1.42
  16  0.639  0.134  0.001-  15 1.42  35 1.42  27 1.42
  17  0.972  0.600  0.001-  38 1.42  18 1.42  12 1.42
  18  0.039  0.734  0.001-  43 1.42  41 1.42  17 1.42
  19  0.572  0.600  0.000-  14 1.42  20 1.42  32 1.42
  20  0.639  0.734  0.001-  49 1.42  19 1.42  47 1.42
  21  0.172  0.400  0.000-  22 1.42   8 1.42   6 1.42
  22  0.239  0.534  0.000-  21 1.42  29 1.42  25 1.42
  23  0.372  0.200  0.000-  10 1.42   4 1.42  24 1.42
  24  0.439  0.334  0.000-  13 1.42  31 1.42  23 1.42
  25  0.172  0.600  0.001-  26 1.42  12 1.42  22 1.42
  26  0.239  0.734  0.001-  25 1.42  45 1.42  43 1.42
  27  0.572  0.200  0.000-  10 1.42  28 1.42  16 1.42
  28  0.639  0.334  0.000-  27 1.42  37 1.42  31 1.42
  29  0.372  0.600  0.000-  22 1.42  14 1.42  30 1.42
  30  0.439  0.734  0.000-  47 1.42  29 1.42  45 1.42
  31  0.572  0.400  0.000-  32 1.42  28 1.42  24 1.42
  32  0.639  0.534  0.000-  31 1.42  39 1.42  19 1.42
  33  0.772  0.000  0.001-  34 1.42  48 1.42  50 1.42
  34  0.839  0.134  0.001-  33 1.42   5 1.42  35 1.42
  35  0.772  0.200  0.001-  36 1.42  16 1.42  34 1.42
  36  0.839  0.334  0.001-  35 1.42  11 1.42  37 1.42
  37  0.772  0.400  0.001-  28 1.42  38 1.42  36 1.42
  38  0.839  0.534  0.001-  17 1.42  37 1.42  39 1.42
  39  0.772  0.600  0.001-  40 1.42  38 1.42  32 1.42
  40  0.839  0.734  0.001-  39 1.42  49 1.42  41 1.42
  41  0.972  0.800  0.001-  18 1.42  42 1.42  40 1.42
  42  0.039  0.934  0.001-   3 1.42  41 1.42   1 1.42
  43  0.172  0.800  0.001-  18 1.42  44 1.42  26 1.42
  44  0.239  0.934  0.001-   9 1.42  43 1.42   3 1.42
  45  0.372  0.800  0.001-  26 1.42  46 1.42  30 1.42
  46  0.439  0.934  0.001-  15 1.42  45 1.42   9 1.42
  47  0.572  0.800  0.001-  30 1.42  48 1.42  20 1.42
  48  0.639  0.934  0.001-  47 1.42  33 1.42  15 1.42
  49  0.772  0.800  0.001-  50 1.42  20 1.42  40 1.42
  50  0.839  0.934  0.001-  49 1.42   1 1.42  33 1.42
  51  0.373  0.251  0.212-  52 1.18  53 1.18
  52  0.421  0.189  0.214-  51 1.18
  53  0.325  0.313  0.210-  51 1.18
 
  LATTYP: Found a hexagonal cell.
 ALAT       =    12.3250000000
 C/A-ratio  =     2.0283975659
  
  Lattice vectors:
  
 A1 = (  12.3250000000,   0.0000000000,   0.0000000000)
 A2 = (  -6.1625000000,  10.6737631016,   0.0000000000)
 A3 = (   0.0000000000,   0.0000000000,  25.0000000000)


Analysis of symmetry for initial positions (statically):
=====================================================================
 Subroutine PRICEL returns:
 Original cell was already a primitive cell.
 

 Routine SETGRP: Setting up the symmetry group for a 
 hexagonal supercell.


 Subroutine GETGRP returns: Found  1 space group operations
 (whereof  1 operations were pure point group operations)
 out of a pool of 24 trial point group operations.


The static configuration has the point symmetry C_1 .


Analysis of symmetry for dynamics (positions and initial velocities):
=====================================================================
 Subroutine PRICEL returns:
 Original cell was already a primitive cell.
 

 Routine SETGRP: Setting up the symmetry group for a 
 hexagonal supercell.


 Subroutine GETGRP returns: Found  1 space group operations
 (whereof  1 operations were pure point group operations)
 out of a pool of 24 trial point group operations.


The dynamic configuration has the point symmetry C_1 .


 Subroutine INISYM returns: Found  1 space group operations
 (whereof  1 operations are pure point group operations),
 and found     1 'primitive' translations


----------------------------------------------------------------------------------------

                                     Primitive cell                                     

  volume of cell :    3288.8533

  direct lattice vectors                    reciprocal lattice vectors
    12.325000000  0.000000000  0.000000000     0.081135903  0.046843835  0.000000000
    -6.162500000 10.673763102  0.000000000     0.000000000  0.093687670  0.000000000
     0.000000000  0.000000000 25.000000000     0.000000000  0.000000000  0.040000000

  length of vectors
    12.325000000 12.325000000 25.000000000     0.093687670  0.093687670  0.040000000

  position of ions in fractional coordinates (direct lattice)
     0.972450841  0.000320818  0.000566711
     0.039118382  0.133659505  0.000440173
     0.172443627  0.000295449  0.000499628
     0.239096278  0.133647917  0.000256468
     0.972452058  0.200322012  0.000485219
     0.039128360  0.333643771  0.000444150
     0.172451764  0.200354552  0.000219167
     0.239124359  0.333665720  0.000072260
     0.372465565  0.000324403  0.000453913
     0.439137473  0.133619939  0.000258338
     0.972449824  0.400309362  0.000547611
     0.039124981  0.533636789  0.000573410
     0.372416176  0.400329481  0.000000000
     0.439099602  0.533638981  0.000232414
     0.572443676  0.000312125  0.000559580
     0.639110207  0.133631751  0.000547275
     0.972452703  0.600305653  0.000640289
     0.039124495  0.733640359  0.000654513
     0.572433471  0.600306242  0.000402895
     0.639111888  0.733641879  0.000527905
     0.172454630  0.400318228  0.000289045
     0.239120185  0.533636548  0.000378509
     0.372459750  0.200295993  0.000088997
     0.439107096  0.333673419  0.000055762
     0.172452155  0.600311506  0.000524340
     0.239123371  0.733638574  0.000575129
     0.572431082  0.200289171  0.000413296
     0.639112773  0.333618630  0.000462376
     0.372439808  0.600308022  0.000362844
     0.439116090  0.733637858  0.000494190
     0.572469358  0.400320504  0.000339918
     0.639119408  0.533650873  0.000459610
     0.772445723  0.000315427  0.000596161
     0.839116277  0.133640203  0.000575306
     0.772440513  0.200307432  0.000581033
     0.839120241  0.333635728  0.000585467
     0.772446320  0.400298367  0.000582978
     0.839118980  0.533633964  0.000621100
     0.772456143  0.600308173  0.000595712
     0.839115033  0.733643180  0.000631512
     0.972455313  0.800305582  0.000652233
     0.039114714  0.933643289  0.000598051
     0.172457971  0.800312211  0.000623372
     0.239134551  0.933647193  0.000544850
     0.372451396  0.800316674  0.000551399
     0.439124489  0.933644769  0.000541430
     0.572441101  0.800310054  0.000534535
     0.639115067  0.933638985  0.000587644
     0.772445098  0.800313187  0.000602062
     0.839116614  0.933644338  0.000606830
     0.373021009  0.251226878  0.211892619
     0.420879805  0.189313152  0.214469493
     0.325156981  0.313167186  0.209514424

  ion indices of the primitive-cell ions
   primitive index   ion index
                 1           1
                 2           2
                 3           3
                 4           4
                 5           5
                 6           6
                 7           7
                 8           8
                 9           9
                10          10
                11          11
                12          12
                13          13
                14          14
                15          15
                16          16
                17          17
                18          18
                19          19
                20          20
                21          21
                22          22
                23          23
                24          24
                25          25
                26          26
                27          27
                28          28
                29          29
                30          30
                31          31
                32          32
                33          33
                34          34
                35          35
                36          36
                37          37
                38          38
                39          39
                40          40
                41          41
                42          42
                43          43
                44          44
                45          45
                46          46
                47          47
                48          48
                49          49
                50          50
                51          51
                52          52
                53          53

----------------------------------------------------------------------------------------

 
 
 KPOINTS: auto                                    

Automatic generation of k-mesh.
 Grid dimensions read from file:
 generate k-points for:    1    1    1

 Generating k-lattice:

  Cartesian coordinates                     Fractional coordinates (reciprocal lattice)
     0.081135903  0.046843835  0.000000000     1.000000000 -0.000000000  0.000000000
     0.000000000  0.093687670  0.000000000     0.000000000  1.000000000  0.000000000
     0.000000000  0.000000000  0.040000000     0.000000000  0.000000000  1.000000000

  Length of vectors
     0.093687670  0.093687670  0.040000000

  Shift w.r.t. Gamma in fractional coordinates (k-lattice)
     0.000000000  0.000000000  0.000000000

 
 Subroutine IBZKPT returns following result:
 ===========================================
 
 Found      1 irreducible k-points:
 
 Following reciprocal coordinates:
            Coordinates               Weight
  0.000000  0.000000  0.000000      1.000000
 
 Following cartesian coordinates:
            Coordinates               Weight
  0.000000  0.000000  0.000000      1.000000
 


--------------------------------------------------------------------------------------------------------




 Dimension of arrays:
   k-points           NKPTS =      1   k-points in BZ     NKDIM =      1   number of bands    NBANDS=    136
   number of dos      NEDOS =    301   number of ions     NIONS =     53
   non local maximal  LDIM  =      4   non local SUM 2l+1 LMDIM =      8
   total plane-waves  NPLWV = ******
   max r-space proj   IRMAX =      1   max aug-charges    IRDMAX=  10008
   dimension x,y,z NGX =   128 NGY =  128 NGZ =  270
   dimension x,y,z NGXF=   256 NGYF=  256 NGZF=  540
   support grid    NGXF=   256 NGYF=  256 NGZF=  540
   ions per type =              51   2
   NGX,Y,Z   is equivalent  to a cutoff of  17.27, 17.27, 17.95 a.u.
   NGXF,Y,Z  is equivalent  to a cutoff of  34.53, 34.53, 35.91 a.u.

 SYSTEM =  unknown system                          
 POSCAR =   C  O                                   

 Startparameter for this run:
   NWRITE =      2    write-flag & timer
   PREC   = accura    normal or accurate (medium, high low for compatibility)
   ISTART =      0    job   : 0-new  1-cont  2-samecut
   ICHARG =      2    charge: 1-file 2-atom 10-const
   ISPIN  =      1    spin polarized calculation?
   LNONCOLLINEAR =      F non collinear calculations
   LSORBIT =      F    spin-orbit coupling
   INIWAV =      1    electr: 0-lowe 1-rand  2-diag
   LASPH  =      T    aspherical Exc in radial PAW
 Electronic Relaxation 1
   ENCUT  = 1000.0 eV  73.50 Ry    8.57 a.u.  31.78 31.78 64.46*2*pi/ulx,y,z
   ENINI  = 1000.0     initial cutoff
   ENAUG  =  946.8 eV  augmentation charge cutoff
   NELM   =     60;   NELMIN=  2; NELMDL= -5     # of ELM steps 
   EDIFF  = 0.1E-06   stopping-criterion for ELM
   LREAL  =      F    real-space projection
   NLSPLINE    = F    spline interpolate recip. space projectors
   LCOMPAT=      F    compatible to vasp.4.4
   GGA_COMPAT  = T    GGA compatible to vasp.4.4-vasp.4.6
   LMAXPAW     = -100 max onsite density
   LMAXMIX     =    2 max onsite mixed and CHGCAR
   VOSKOWN=      0    Vosko Wilk Nusair interpolation
   ROPT   =    0.00000   0.00000
 Ionic relaxation
   EDIFFG = 0.1E-05   stopping-criterion for IOM
   NSW    =      0    number of steps for IOM
   NBLOCK =      1;   KBLOCK =      1    inner block; outer block 
   IBRION =     -1    ionic relax: 0-MD 1-quasi-New 2-CG
   NFREE  =      0    steps in history (QN), initial steepest desc. (CG)
   ISIF   =      0    stress and relaxation
   IWAVPR =     10    prediction:  0-non 1-charg 2-wave 3-comb
   ISYM   =      2    0-nonsym 1-usesym 2-fastsym
   LCORR  =      T    Harris-Foulkes like correction to forces

   POTIM  = 0.5000    time-step for ionic-motion
   TEIN   =    0.0    initial temperature
   TEBEG  =    0.0;   TEEND  =   0.0 temperature during run
   SMASS  =  -3.00    Nose mass-parameter (am)
   estimated Nose-frequenzy (Omega)   =  0.10E-29 period in steps = 0.13E+47 mass=  -0.347E-26a.u.
   SCALEE = 1.0000    scale energy and forces
   NPACO  =    256;   APACO  = 16.0  distance and # of slots for P.C.
   PSTRESS=    0.0 pullay stress

  Mass of Ions in am
   POMASS =  12.01 16.00
  Ionic Valenz
   ZVAL   =   4.00  6.00
  Atomic Wigner-Seitz radii
   RWIGS  =  -1.00 -1.00
  virtual crystal weights 
   VCA    =   1.00  1.00
   NELECT =     216.0000    total number of electrons
   NUPDOWN=      -1.0000    fix difference up-down

 DOS related values:
   EMIN   =  10.00;   EMAX   =-10.00  energy-range for DOS
   EFERMI =   0.00
   ISMEAR =     0;   SIGMA  =   0.01  broadening in eV -4-tet -1-fermi 0-gaus

 Electronic relaxation 2 (details)
   IALGO  =     58    algorithm
   LDIAG  =      T    sub-space diagonalisation (order eigenvalues)
   LSUBROT=      F    optimize rotation matrix (better conditioning)
   TURBO    =      0    0=normal 1=particle mesh
   IRESTART =      0    0=no restart 2=restart with 2 vectors
   NREBOOT  =      0    no. of reboots
   NMIN     =      0    reboot dimension
   EREF     =   0.00    reference energy to select bands
   IMIX   =      4    mixing-type and parameters
     AMIX     =   0.40;   BMIX     =  1.00
     AMIX_MAG =   1.60;   BMIX_MAG =  1.00
     AMIN     =   0.10
     WC   =   100.;   INIMIX=   1;  MIXPRE=   1;  MAXMIX= -45

 Intra band minimization:
   WEIMIN = 0.0000     energy-eigenvalue tresh-hold
   EBREAK =  0.18E-09  absolut break condition
   DEPER  =   0.30     relativ break condition  

   TIME   =   0.40     timestep for ELM

  volume/ion in A,a.u.               =      62.05       418.76
  Fermi-wavevector in a.u.,A,eV,Ry     =   0.660508  1.248179  5.935820  0.436270
  Thomas-Fermi vector in A             =   1.732977
 
 Write flags
   LWAVE        =      F    write WAVECAR
   LDOWNSAMPLE  =      F    k-point downsampling of WAVECAR
   LCHARG       =      T    write CHGCAR
   LVTOT        =      F    write LOCPOT, total local potential
   LVHAR        =      F    write LOCPOT, Hartree potential only
   LELF         =      F    write electronic localiz. function (ELF)
   LORBIT       =      0    0 simple, 1 ext, 2 COOP (PROOUT), +10 PAW based schemes


 Dipole corrections
   LMONO  =      F    monopole corrections only (constant potential shift)
   LDIPOL =      F    correct potential (dipole corrections)
   IDIPOL =      0    1-x, 2-y, 3-z, 4-all directions 
   EPSILON=  1.0000000 bulk dielectric constant

 Exchange correlation treatment:
   GGA     =    ML    GGA type
   LEXCH   =    44    internal setting for exchange type
   VOSKOWN=      0    Vosko Wilk Nusair interpolation
   LHFCALC =     F    Hartree Fock is set to
   LHFONE  =     F    Hartree Fock one center treatment
   AEXX    =    0.0000 exact exchange contribution

 vdW DFT:
   LUSE_VDW   =     T    switch on vdW DFT
   Zab_VDW    =******    correlation parameter
   PARAM1     =0.1234
   PARAM2     =1.0000
   PARAM3     =0.0000
   -- rVV10 --
   BPARAM     = 6.3000
   CPARAM     = 0.0093

 Linear response parameters
   LEPSILON=     F    determine dielectric tensor
   LRPA    =     F    only Hartree local field effects (RPA)
   LNABLA  =     F    use nabla operator in PAW spheres
   LVEL    =     F    velocity operator in full k-point grid
   LINTERFAST=   F  fast interpolation
   KINTER  =     0    interpolate to denser k-point grid
   CSHIFT  =0.1000    complex shift for real part using Kramers Kronig
   OMEGAMAX=  -1.0    maximum frequency
   DEG_THRESHOLD= 0.2000000E-02 threshold for treating states as degnerate
   RTIME   =   -0.100 relaxation time in fs
  (WPLASMAI=    0.000 imaginary part of plasma frequency in eV, 0.658/RTIME)
   DFIELD  = 0.0000000 0.0000000 0.0000000 field for delta impulse in time
 
 Orbital magnetization related:
   ORBITALMAG=     F  switch on orbital magnetization
   LCHIMAG   =     F  perturbation theory with respect to B field
   DQ        =  0.001000  dq finite difference perturbation B field
   LLRAUG    =     F  two centre corrections for induced B field



--------------------------------------------------------------------------------------------------------


 Static calculation
 charge density and potential will be updated during run
 non-spin polarized calculation
 Conjugate gradient for all bands (Freysoldt, et al. PRB 79, 241103 (2009))
 preconditioned conjugated gradient                                        
 perform sub-space diagonalisation
    before iterative eigenvector-optimisation
 modified Broyden-mixing scheme, WC =      100.0
 initial mixing is a Kerker type mixing with AMIX =  0.4000 and BMIX =      1.0000
 Hartree-type preconditioning will be used
 using additional bands           28
 reciprocal scheme for non local part
 use partial core corrections
 no Harris-corrections to forces 
 use gradient corrections 
 use of overlap-Matrix (Vanderbilt PP)
 Gauss-broadening in eV      SIGMA  =   0.01


--------------------------------------------------------------------------------------------------------


  energy-cutoff  :     1000.00
  volume of cell :     3288.85
      direct lattice vectors                 reciprocal lattice vectors
    12.325000000  0.000000000  0.000000000     0.081135903  0.046843835  0.000000000
    -6.162500000 10.673763102  0.000000000     0.000000000  0.093687670  0.000000000
     0.000000000  0.000000000 25.000000000     0.000000000  0.000000000  0.040000000

  length of vectors
    12.325000000 12.325000000 25.000000000     0.093687670  0.093687670  0.040000000


 
 k-points in units of 2pi/SCALE and weight: auto                                    
   0.00000000  0.00000000  0.00000000       1.000
 
 k-points in reciprocal lattice and weights: auto                                    
   0.00000000  0.00000000  0.00000000       1.000
 
 position of ions in fractional coordinates (direct lattice) 
   0.97245084  0.00032082  0.00056671
   0.03911838  0.13365950  0.00044017
   0.17244363  0.00029545  0.00049963
   0.23909628  0.13364792  0.00025647
   0.97245206  0.20032201  0.00048522
   0.03912836  0.33364377  0.00044415
   0.17245176  0.20035455  0.00021917
   0.23912436  0.33366572  0.00007226
   0.37246557  0.00032440  0.00045391
   0.43913747  0.13361994  0.00025834
   0.97244982  0.40030936  0.00054761
   0.03912498  0.53363679  0.00057341
   0.37241618  0.40032948  0.00000000
   0.43909960  0.53363898  0.00023241
   0.57244368  0.00031213  0.00055958
   0.63911021  0.13363175  0.00054727
   0.97245270  0.60030565  0.00064029
   0.03912449  0.73364036  0.00065451
   0.57243347  0.60030624  0.00040289
   0.63911189  0.73364188  0.00052791
   0.17245463  0.40031823  0.00028904
   0.23912018  0.53363655  0.00037851
   0.37245975  0.20029599  0.00008900
   0.43910710  0.33367342  0.00005576
   0.17245216  0.60031151  0.00052434
   0.23912337  0.73363857  0.00057513
   0.57243108  0.20028917  0.00041330
   0.63911277  0.33361863  0.00046238
   0.37243981  0.60030802  0.00036284
   0.43911609  0.73363786  0.00049419
   0.57246936  0.40032050  0.00033992
   0.63911941  0.53365087  0.00045961
   0.77244572  0.00031543  0.00059616
   0.83911628  0.13364020  0.00057531
   0.77244051  0.20030743  0.00058103
   0.83912024  0.33363573  0.00058547
   0.77244632  0.40029837  0.00058298
   0.83911898  0.53363396  0.00062110
   0.77245614  0.60030817  0.00059571
   0.83911503  0.73364318  0.00063151
   0.97245531  0.80030558  0.00065223
   0.03911471  0.93364329  0.00059805
   0.17245797  0.80031221  0.00062337
   0.23913455  0.93364719  0.00054485
   0.37245140  0.80031667  0.00055140
   0.43912449  0.93364477  0.00054143
   0.57244110  0.80031005  0.00053453
   0.63911507  0.93363899  0.00058764
   0.77244510  0.80031319  0.00060206
   0.83911661  0.93364434  0.00060683
   0.37302101  0.25122688  0.21189262
   0.42087980  0.18931315  0.21446949
   0.32515698  0.31316719  0.20951442
 
 position of ions in cartesian coordinates  (Angst):
  11.98347958  0.00342433  0.01416777
  -0.34154264  1.42664989  0.01100432
   2.12354700  0.00315355  0.01249070
   2.12325634  1.42652621  0.00641170
  10.75098721  2.13818970  0.01213047
  -1.57382270  3.56123457  0.01110375
   0.89078307  2.13853702  0.00547917
   0.89099273  3.56146885  0.00180651
   4.58863896  0.00346260  0.01134782
   4.58893648  1.42622757  0.00645846
   9.51853763  4.27280730  0.01369027
  -2.80632132  5.69591267  0.01433526
   2.12299894  4.27302204  0.00000000
   2.12335237  5.69593607  0.00581036
   7.05344483  0.00333155  0.01398950
   7.05352764  1.42635365  0.01368187
   8.28609598  6.40752033  0.01600723
  -4.03884931  7.83070339  0.01636283
   3.35585531  6.40752662  0.01007237
   3.35598594  7.83071962  0.01319763
  -0.34145776  4.27290193  0.00722612
  -0.34137895  5.69591010  0.00946273
   3.35624236  2.13791198  0.00222492
   3.35573251  3.56155103  0.00139405
  -1.57394684  6.40758280  0.01310850
  -1.57385216  7.83068434  0.01437823
   5.82093107  2.13783916  0.01033241
   5.82114012  3.56096622  0.01155939
   0.89092245  6.40754561  0.00907111
   0.89106251  7.83067670  0.01235474
   4.58870974  4.27292622  0.00849795
   4.58852320  5.69606300  0.01149026
   9.51844972  0.00336679  0.01490402
   9.51855036  1.42644387  0.01438264
   8.28593477  2.13803408  0.01452582
   8.28612680  3.56114872  0.01463668
   7.05356221  4.27268994  0.01457444
   7.05362213  5.69588251  0.01552751
   5.82112285  6.40754723  0.01489279
   5.82101669  7.83073350  0.01578780
   7.05362858  8.54227219  0.01630582
  -5.27148792  9.96548729  0.01495127
  -2.80637951  8.54234295  0.01558431
  -2.80626749  9.96552896  0.01362126
  -0.34148805  8.54239058  0.01378498
  -0.34137657  9.96550309  0.01353576
   2.12342586  8.54231992  0.01336337
   2.12354296  9.96544135  0.01469111
   4.58845581  8.54235337  0.01505154
   4.58852904  9.96549848  0.01517076
   3.04929830  2.68153618  5.29731547
   4.02070129  2.02068374  5.36173733
   2.07766701  3.34267235  5.23786060
 


--------------------------------------------------------------------------------------------------------


 k-point   1 :   0.0000 0.0000 0.0000  plane waves:  236157

 maximum and minimum number of plane-waves per node :      8440     8428

 maximum number of plane-waves:    236157
 maximum index in each direction: 
   IXMAX=   31   IYMAX=   31   IZMAX=   64
   IXMIN=  -31   IYMIN=  -31   IZMIN=  -64


 parallel 3D FFT for wavefunctions:
    minimum data exchange during FFTs selected (reduces bandwidth)
 parallel 3D FFT for charge:
    minimum data exchange during FFTs selected (reduces bandwidth)


 total amount of memory used by VASP MPI-rank0   100580. kBytes
=======================================================================

   base      :      30000. kBytes
   nonl-proj :       8229. kBytes
   fftplans  :      18352. kBytes
   grid      :      30208. kBytes
   one-center:          6. kBytes
   wavefun   :      13785. kBytes
 
     INWAV:  cpu time    0.0000: real time    0.0000
 Broyden mixing: mesh for mixing (old mesh)
   NGX = 63   NGY = 63   NGZ =129
  (NGX  =256   NGY  =256   NGZ  =540)
  gives a total of 512001 points

 initial charge density was supplied:
 charge density of overlapping atoms calculated
 number of electron     216.0000000 magnetization 
 keeping initial charge density in first step


--------------------------------------------------------------------------------------------------------


 Maximum index for augmentation-charges          471 (set IRDMAX)


--------------------------------------------------------------------------------------------------------


 First call to EWALD:  gamma=   0.119
 Maximum number of real-space cells 4x 4x 2
 Maximum number of reciprocal cells 2x 2x 4

    FEWALD:  cpu time    0.0026: real time    0.0026


--------------------------------------- Iteration      1(   1)  ---------------------------------------


vdW kernel read from vdw_kernel.bindat
  0.0000  0.2424  0.5071  0.7962  1.1119  1.4567  1.8333  2.2446  2.6937  3.1842
  3.7199  4.3049  4.9438  5.6415  6.4036  7.2358  8.1446  9.1372 10.2212 11.4050
 12.6979 14.1099 15.6519 17.3360 19.1751 21.1837 23.3773 25.7729 28.3892 31.2465
 34.3669 37.7748 41.4965 45.5611 50.0000
 
    POTLOK:  cpu time    4.5532: real time    4.6038
    SETDIJ:  cpu time    0.0539: real time    0.0542
    TRIAL :  cpu time    2.0996: real time    2.1207
    CORREC:  cpu time    0.0004: real time    0.0006
    --------------------------------------------
      LOOP:  cpu time    6.7140: real time    6.7924

 eigenvalue-minimisations  :   288
 total energy-change (2. order) : 0.2821335E+04  (-0.1021248E+05)
 number of electron     216.0000000 magnetization 
 augmentation part      216.0000000 magnetization 

 Free energy of the ion-electron system (eV)
  ---------------------------------------------------
  alpha Z        PSCENC =        47.94900195
  Ewald energy   TEWEN  =     44407.38298792
  -Hartree energ DENC   =    -50476.55488451
  -exchange      EXHF   =         0.00000000
  -V(xc)+E(xc)   XCENC  =       352.73156727
  PAW double counting   =      6601.42964284    -6299.49404826
  entropy T*S    EENTRO =        -0.00000000
  eigenvalues    EBANDS =      -369.52242248
  atomic energy  EATOM  =      8557.41276814
  ---------------------------------------------------
  free energy    TOTEN  =      2821.33461288 eV

  energy without entropy =     2821.33461288  energy(sigma->0) =     2821.33461288


--------------------------------------------------------------------------------------------------------




--------------------------------------- Iteration      1(   2)  ---------------------------------------


    TRIAL :  cpu time    2.8669: real time    2.8930
    CORREC:  cpu time    0.0001: real time    0.0001
    --------------------------------------------
      LOOP:  cpu time    2.9112: real time    2.9394

 eigenvalue-minimisations  :   440
 total energy-change (2. order) :-0.2332729E+04  (-0.2184087E+04)
 number of electron     216.0000000 magnetization 
 augmentation part      216.0000000 magnetization 

 Free energy of the ion-electron system (eV)
  ---------------------------------------------------
  alpha Z        PSCENC =        47.94900195
  Ewald energy   TEWEN  =     44407.38298792
  -Hartree energ DENC   =    -50476.55488451
  -exchange      EXHF   =         0.00000000
  -V(xc)+E(xc)   XCENC  =       352.73156727
  PAW double counting   =      6601.42964284    -6299.49404826
  entropy T*S    EENTRO =        -0.00000000
  eigenvalues    EBANDS =     -2702.25163603
  atomic energy  EATOM  =      8557.41276814
  ---------------------------------------------------
  free energy    TOTEN  =       488.60539933 eV

  energy without entropy =      488.60539933  energy(sigma->0) =      488.60539933


--------------------------------------------------------------------------------------------------------




--------------------------------------- Iteration      1(   3)  ---------------------------------------


    TRIAL :  cpu time    2.4095: real time    2.4316
    CORREC:  cpu time    0.0001: real time    0.0001
    --------------------------------------------
      LOOP:  cpu time    2.4384: real time    2.4613

 eigenvalue-minimisations  :   352
 total energy-change (2. order) :-0.8439262E+03  (-0.8373284E+03)
 number of electron     216.0000000 magnetization 
 augmentation part      216.0000000 magnetization 

 Free energy of the ion-electron system (eV)
  ---------------------------------------------------
  alpha Z        PSCENC =        47.94900195
  Ewald energy   TEWEN  =     44407.38298792
  -Hartree energ DENC   =    -50476.55488451
  -exchange      EXHF   =         0.00000000
  -V(xc)+E(xc)   XCENC  =       352.73156727
  PAW double counting   =      6601.42964284    -6299.49404826
  entropy T*S    EENTRO =        -0.00000000
  eigenvalues    EBANDS =     -3546.17785000
  atomic energy  EATOM  =      8557.41276814
  ---------------------------------------------------
  free energy    TOTEN  =      -355.32081465 eV

  energy without entropy =     -355.32081465  energy(sigma->0) =     -355.32081465


--------------------------------------------------------------------------------------------------------




--------------------------------------- Iteration      1(   4)  ---------------------------------------


    TRIAL :  cpu time    2.3877: real time    2.4105
    CORREC:  cpu time    0.0001: real time    0.0001
    --------------------------------------------
      LOOP:  cpu time    2.4820: real time    2.5059

 eigenvalue-minimisations  :   344
 total energy-change (2. order) :-0.7488278E+02  (-0.7398387E+02)
 number of electron     216.0000000 magnetization 
 augmentation part      216.0000000 magnetization 

 Free energy of the ion-electron system (eV)
  ---------------------------------------------------
  alpha Z        PSCENC =        47.94900195
  Ewald energy   TEWEN  =     44407.38298792
  -Hartree energ DENC   =    -50476.55488451
  -exchange      EXHF   =         0.00000000
  -V(xc)+E(xc)   XCENC  =       352.73156727
  PAW double counting   =      6601.42964284    -6299.49404826
  entropy T*S    EENTRO =        -0.00000000
  eigenvalues    EBANDS =     -3621.06062922
  atomic energy  EATOM  =      8557.41276814
  ---------------------------------------------------
  free energy    TOTEN  =      -430.20359386 eV

  energy without entropy =     -430.20359386  energy(sigma->0) =     -430.20359386


--------------------------------------------------------------------------------------------------------




--------------------------------------- Iteration      1(   5)  ---------------------------------------


    TRIAL :  cpu time    2.4806: real time    2.5097
    CORREC:  cpu time    0.0001: real time    0.0001
    CHARGE:  cpu time    0.1826: real time    0.1851
    --------------------------------------------
      LOOP:  cpu time    2.7187: real time    2.7536

 eigenvalue-minimisations  :   360
 total energy-change (2. order) :-0.2084625E+01  (-0.2075205E+01)
 number of electron     216.0000000 magnetization 
 augmentation part       -0.1446741 magnetization 

 Free energy of the ion-electron system (eV)
  ---------------------------------------------------
  alpha Z        PSCENC =        47.94900195
  Ewald energy   TEWEN  =     44407.38298792
  -Hartree energ DENC   =    -50476.55488451
  -exchange      EXHF   =         0.00000000
  -V(xc)+E(xc)   XCENC  =       352.73156727
  PAW double counting   =      6601.42964284    -6299.49404826
  entropy T*S    EENTRO =        -0.00000000
  eigenvalues    EBANDS =     -3623.14525429
  atomic energy  EATOM  =      8557.41276814
  ---------------------------------------------------
  free energy    TOTEN  =      -432.28821893 eV

  energy without entropy =     -432.28821893  energy(sigma->0) =     -432.28821893


--------------------------------------------------------------------------------------------------------




--------------------------------------- Iteration      1(   6)  ---------------------------------------


    POTLOK:  cpu time    4.2695: real time    4.3046
    SETDIJ:  cpu time    0.0526: real time    0.0529
    TRIAL :  cpu time    1.1711: real time    1.1826
    CORREC:  cpu time    4.7593: real time    4.7964
    CHARGE:  cpu time    0.1791: real time    0.1809
    --------------------------------------------
      LOOP:  cpu time   10.4685: real time   10.5598

 eigenvalue-minimisations  :     0
 total energy-change (2. order) : 0.6347394E+02  (-0.2149593E+02)
 number of electron     216.0000000 magnetization 
 augmentation part       -0.2758164 magnetization 

 Free energy of the ion-electron system (eV)
  ---------------------------------------------------
  alpha Z        PSCENC =        47.94900195
  Ewald energy   TEWEN  =     44407.38298792
  -Hartree energ DENC   =    -52039.89039141
  -exchange      EXHF   =         0.00000000
  -V(xc)+E(xc)   XCENC  =       408.05478476
  PAW double counting   =     52661.61834088   -52383.75178581
  entropy T*S    EENTRO =        -0.00000000
  eigenvalues    EBANDS =     -2027.58998827
  atomic energy  EATOM  =      8557.41276814
  ---------------------------------------------------
  free energy    TOTEN  =      -368.81428182 eV

  energy without entropy =     -368.81428182  energy(sigma->0) =     -368.81428182


--------------------------------------------------------------------------------------------------------




--------------------------------------- Iteration      1(   7)  ---------------------------------------


    POTLOK:  cpu time    4.2509: real time    4.2816
    SETDIJ:  cpu time    0.0525: real time    0.0527
    TRIAL :  cpu time    1.1671: real time    1.1780
    CORREC:  cpu time    4.7509: real time    4.7871
    CHARGE:  cpu time    0.1826: real time    0.1845
    --------------------------------------------
      LOOP:  cpu time   10.4449: real time   10.5255

 eigenvalue-minimisations  :     0
 total energy-change (2. order) :-0.2160410E+02  (-0.2193678E+01)
 number of electron     216.0000000 magnetization 
 augmentation part       -0.3293073 magnetization 

 Free energy of the ion-electron system (eV)
  ---------------------------------------------------
  alpha Z        PSCENC =        47.94900195
  Ewald energy   TEWEN  =     44407.38298792
  -Hartree energ DENC   =    -51440.92129056
  -exchange      EXHF   =         0.00000000
  -V(xc)+E(xc)   XCENC  =       385.68652804
  PAW double counting   =     68461.08603128   -68176.22119165
  entropy T*S    EENTRO =        -0.00000000
  eigenvalues    EBANDS =     -2632.79321932
  atomic energy  EATOM  =      8557.41276814
  ---------------------------------------------------
  free energy    TOTEN  =      -390.41838420 eV

  energy without entropy =     -390.41838420  energy(sigma->0) =     -390.41838420


--------------------------------------------------------------------------------------------------------




--------------------------------------- Iteration      1(   8)  ---------------------------------------


    POTLOK:  cpu time    4.2785: real time    4.3174
    SETDIJ:  cpu time    0.0557: real time    0.0560
    TRIAL :  cpu time    1.1661: real time    1.1796
    CORREC:  cpu time    4.7599: real time    4.8175
    CHARGE:  cpu time    0.1825: real time    0.1844
    --------------------------------------------
      LOOP:  cpu time   10.5282: real time   10.6453

 eigenvalue-minimisations  :     0
 total energy-change (2. order) :-0.2190625E+01  (-0.6202327E+00)
 number of electron     216.0000000 magnetization 
 augmentation part       -0.3526381 magnetization 

 Free energy of the ion-electron system (eV)
  ---------------------------------------------------
  alpha Z        PSCENC =        47.94900195
  Ewald energy   TEWEN  =     44407.38298792
  -Hartree energ DENC   =    -51411.31453814
  -exchange      EXHF   =         0.00000000
  -V(xc)+E(xc)   XCENC  =       385.13083564
  PAW double counting   =     73734.85272351   -73448.84987558
  entropy T*S    EENTRO =        -0.00000000
  eigenvalues    EBANDS =     -2665.17291272
  atomic energy  EATOM  =      8557.41276814
  ---------------------------------------------------
  free energy    TOTEN  =      -392.60900926 eV

  energy without entropy =     -392.60900926  energy(sigma->0) =     -392.60900926


--------------------------------------------------------------------------------------------------------




--------------------------------------- Iteration      1(   9)  ---------------------------------------


    POTLOK:  cpu time    4.2752: real time    4.3049
    SETDIJ:  cpu time    0.0525: real time    0.0526
    TRIAL :  cpu time    1.1630: real time    1.1789
    CORREC:  cpu time    4.7504: real time    4.7855
    CHARGE:  cpu time    0.1821: real time    0.1844
    --------------------------------------------
      LOOP:  cpu time   10.4765: real time   10.5636

 eigenvalue-minimisations  :     0
 total energy-change (2. order) :-0.6203799E+00  (-0.2382413E+00)
 number of electron     216.0000000 magnetization 
 augmentation part       -0.3619989 magnetization 

 Free energy of the ion-electron system (eV)
  ---------------------------------------------------
  alpha Z        PSCENC =        47.94900195
  Ewald energy   TEWEN  =     44407.38298792
  -Hartree energ DENC   =    -51426.59001381
  -exchange      EXHF   =         0.00000000
  -V(xc)+E(xc)   XCENC  =       385.57273293
  PAW double counting   =     78176.91841206   -77890.44380708
  entropy T*S    EENTRO =        -0.00000000
  eigenvalues    EBANDS =     -2651.43147125
  atomic energy  EATOM  =      8557.41276814
  ---------------------------------------------------
  free energy    TOTEN  =      -393.22938912 eV

  energy without entropy =     -393.22938912  energy(sigma->0) =     -393.22938912


--------------------------------------------------------------------------------------------------------




--------------------------------------- Iteration      1(  10)  ---------------------------------------


    POTLOK:  cpu time    4.2590: real time    4.2886
    SETDIJ:  cpu time    0.0527: real time    0.0529
    TRIAL :  cpu time    1.1654: real time    1.1765
    CORREC:  cpu time    4.7448: real time    4.7803
    CHARGE:  cpu time    0.1824: real time    0.1841
    --------------------------------------------
      LOOP:  cpu time   10.5058: real time   10.5856

 eigenvalue-minimisations  :     0
 total energy-change (2. order) :-0.2375827E+00  (-0.1064761E+00)
 number of electron     216.0000000 magnetization 
 augmentation part       -0.3596413 magnetization 

 Free energy of the ion-electron system (eV)
  ---------------------------------------------------
  alpha Z        PSCENC =        47.94900195
  Ewald energy   TEWEN  =     44407.38298792
  -Hartree energ DENC   =    -51422.53334081
  -exchange      EXHF   =         0.00000000
  -V(xc)+E(xc)   XCENC  =       385.51226483
  PAW double counting   =     80065.31329191   -79778.53527100
  entropy T*S    EENTRO =        -0.00000000
  eigenvalues    EBANDS =     -2655.96867482
  atomic energy  EATOM  =      8557.41276814
  ---------------------------------------------------
  free energy    TOTEN  =      -393.46697186 eV

  energy without entropy =     -393.46697186  energy(sigma->0) =     -393.46697186


--------------------------------------------------------------------------------------------------------




--------------------------------------- Iteration      1(  11)  ---------------------------------------


    POTLOK:  cpu time    4.2866: real time    4.3163
    SETDIJ:  cpu time    0.0526: real time    0.0528
    TRIAL :  cpu time    1.1863: real time    1.1977
    CORREC:  cpu time    4.7545: real time    4.8163
    CHARGE:  cpu time    0.1823: real time    0.1841
    --------------------------------------------
      LOOP:  cpu time   10.4963: real time   10.6054

 eigenvalue-minimisations  :     0
 total energy-change (2. order) :-0.1060532E+00  (-0.4302974E-01)
 number of electron     216.0000000 magnetization 
 augmentation part       -0.3569320 magnetization 

 Free energy of the ion-electron system (eV)
  ---------------------------------------------------
  alpha Z        PSCENC =        47.94900195
  Ewald energy   TEWEN  =     44407.38298792
  -Hartree energ DENC   =    -51414.87062481
  -exchange      EXHF   =         0.00000000
  -V(xc)+E(xc)   XCENC  =       385.43885369
  PAW double counting   =     80164.43194887   -79877.59273637
  entropy T*S    EENTRO =        -0.00000000
  eigenvalues    EBANDS =     -2663.72522447
  atomic energy  EATOM  =      8557.41276814
  ---------------------------------------------------
  free energy    TOTEN  =      -393.57302505 eV

  energy without entropy =     -393.57302505  energy(sigma->0) =     -393.57302505


--------------------------------------------------------------------------------------------------------




--------------------------------------- Iteration      1(  12)  ---------------------------------------


    POTLOK:  cpu time    4.2668: real time    4.3200
    SETDIJ:  cpu time    0.0525: real time    0.0527
    TRIAL :  cpu time    1.1670: real time    1.1783
    CORREC:  cpu time    4.7399: real time    4.7768
    CHARGE:  cpu time    0.1814: real time    0.1833
    --------------------------------------------
      LOOP:  cpu time   10.4390: real time   10.5551

 eigenvalue-minimisations  :     0
 total energy-change (2. order) :-0.4287467E-01  (-0.1339094E-01)
 number of electron     216.0000000 magnetization 
 augmentation part       -0.3562926 magnetization 

 Free energy of the ion-electron system (eV)
  ---------------------------------------------------
  alpha Z        PSCENC =        47.94900195
  Ewald energy   TEWEN  =     44407.38298792
  -Hartree energ DENC   =    -51411.71284705
  -exchange      EXHF   =         0.00000000
  -V(xc)+E(xc)   XCENC  =       385.35885457
  PAW double counting   =     79671.52966532   -79384.75076794
  entropy T*S    EENTRO =        -0.00000000
  eigenvalues    EBANDS =     -2666.78556264
  atomic energy  EATOM  =      8557.41276814
  ---------------------------------------------------
  free energy    TOTEN  =      -393.61589973 eV

  energy without entropy =     -393.61589973  energy(sigma->0) =     -393.61589973


--------------------------------------------------------------------------------------------------------




--------------------------------------- Iteration      1(  13)  ---------------------------------------


    POTLOK:  cpu time    4.2714: real time    4.3030
    SETDIJ:  cpu time    0.0526: real time    0.0528
    TRIAL :  cpu time    1.1613: real time    1.1767
    CORREC:  cpu time    4.7582: real time    4.7961
    CHARGE:  cpu time    0.1810: real time    0.1827
    --------------------------------------------
      LOOP:  cpu time   10.5092: real time   10.5985

 eigenvalue-minimisations  :     0
 total energy-change (2. order) :-0.1337670E-01  (-0.3897229E-02)
 number of electron     216.0000000 magnetization 
 augmentation part       -0.3560390 magnetization 

 Free energy of the ion-electron system (eV)
  ---------------------------------------------------
  alpha Z        PSCENC =        47.94900195
  Ewald energy   TEWEN  =     44407.38298792
  -Hartree energ DENC   =    -51411.51499955
  -exchange      EXHF   =         0.00000000
  -V(xc)+E(xc)   XCENC  =       385.32354959
  PAW double counting   =     79249.56757579   -78962.84702526
  entropy T*S    EENTRO =        -0.00000000
  eigenvalues    EBANDS =     -2666.90313502
  atomic energy  EATOM  =      8557.41276814
  ---------------------------------------------------
  free energy    TOTEN  =      -393.62927643 eV

  energy without entropy =     -393.62927643  energy(sigma->0) =     -393.62927643


--------------------------------------------------------------------------------------------------------




--------------------------------------- Iteration      1(  14)  ---------------------------------------


    POTLOK:  cpu time    4.2660: real time    4.2963
    SETDIJ:  cpu time    0.0525: real time    0.0526
    TRIAL :  cpu time    1.1979: real time    1.2177
    CORREC:  cpu time    4.7496: real time    4.7852
    CHARGE:  cpu time    0.1818: real time    0.1836
    --------------------------------------------
      LOOP:  cpu time   10.4743: real time   10.5628

 eigenvalue-minimisations  :     0
 total energy-change (2. order) :-0.3896656E-02  (-0.1294241E-02)
 number of electron     216.0000000 magnetization 
 augmentation part       -0.3563685 magnetization 

 Free energy of the ion-electron system (eV)
  ---------------------------------------------------
  alpha Z        PSCENC =        47.94900195
  Ewald energy   TEWEN  =     44407.38298792
  -Hartree energ DENC   =    -51411.39762326
  -exchange      EXHF   =         0.00000000
  -V(xc)+E(xc)   XCENC  =       385.30108723
  PAW double counting   =     79085.47596403   -78798.78245543
  entropy T*S    EENTRO =        -0.00000000
  eigenvalues    EBANDS =     -2666.97490367
  atomic energy  EATOM  =      8557.41276814
  ---------------------------------------------------
  free energy    TOTEN  =      -393.63317308 eV

  energy without entropy =     -393.63317308  energy(sigma->0) =     -393.63317308


--------------------------------------------------------------------------------------------------------




--------------------------------------- Iteration      1(  15)  ---------------------------------------


    POTLOK:  cpu time    4.2682: real time    4.2981
    SETDIJ:  cpu time    0.0554: real time    0.0556
    TRIAL :  cpu time    1.1634: real time    1.1762
    CORREC:  cpu time    4.7669: real time    4.8029
    CHARGE:  cpu time    0.1820: real time    0.1839
    --------------------------------------------
      LOOP:  cpu time   10.4851: real time   10.5792

 eigenvalue-minimisations  :     0
 total energy-change (2. order) :-0.1293961E-02  (-0.5728802E-03)
 number of electron     216.0000000 magnetization 
 augmentation part       -0.3564038 magnetization 

 Free energy of the ion-electron system (eV)
  ---------------------------------------------------
  alpha Z        PSCENC =        47.94900195
  Ewald energy   TEWEN  =     44407.38298792
  -Hartree energ DENC   =    -51411.03043000
  -exchange      EXHF   =         0.00000000
  -V(xc)+E(xc)   XCENC  =       385.27395057
  PAW double counting   =     79031.24320197   -78744.55567939
  entropy T*S    EENTRO =        -0.00000000
  eigenvalues    EBANDS =     -2667.31026822
  atomic energy  EATOM  =      8557.41276814
  ---------------------------------------------------
  free energy    TOTEN  =      -393.63446704 eV

  energy without entropy =     -393.63446704  energy(sigma->0) =     -393.63446704


--------------------------------------------------------------------------------------------------------




--------------------------------------- Iteration      1(  16)  ---------------------------------------


    POTLOK:  cpu time    4.2676: real time    4.2973
    SETDIJ:  cpu time    0.0526: real time    0.0528
    TRIAL :  cpu time    1.1629: real time    1.1753
    CORREC:  cpu time    4.7507: real time    4.7875
    CHARGE:  cpu time    0.1813: real time    0.1831
    --------------------------------------------
      LOOP:  cpu time   10.4641: real time   10.5507

 eigenvalue-minimisations  :     0
 total energy-change (2. order) :-0.5725471E-03  (-0.3026794E-03)
 number of electron     216.0000000 magnetization 
 augmentation part       -0.3564079 magnetization 

 Free energy of the ion-electron system (eV)
  ---------------------------------------------------
  alpha Z        PSCENC =        47.94900195
  Ewald energy   TEWEN  =     44407.38298792
  -Hartree energ DENC   =    -51411.38490896
  -exchange      EXHF   =         0.00000000
  -V(xc)+E(xc)   XCENC  =       385.28721970
  PAW double counting   =     78975.15734249   -78688.47590302
  entropy T*S    EENTRO =        -0.00000000
  eigenvalues    EBANDS =     -2666.96354781
  atomic energy  EATOM  =      8557.41276814
  ---------------------------------------------------
  free energy    TOTEN  =      -393.63503959 eV

  energy without entropy =     -393.63503959  energy(sigma->0) =     -393.63503959


--------------------------------------------------------------------------------------------------------




--------------------------------------- Iteration      1(  17)  ---------------------------------------


    POTLOK:  cpu time    4.2821: real time    4.3271
    SETDIJ:  cpu time    0.0528: real time    0.0529
    TRIAL :  cpu time    1.1991: real time    1.2110
    CORREC:  cpu time    4.8357: real time    4.8746
    CHARGE:  cpu time    0.1823: real time    0.1841
    --------------------------------------------
      LOOP:  cpu time   10.5959: real time   10.6966

 eigenvalue-minimisations  :     0
 total energy-change (2. order) :-0.3023777E-03  (-0.1306030E-03)
 number of electron     216.0000000 magnetization 
 augmentation part       -0.3563658 magnetization 

 Free energy of the ion-electron system (eV)
  ---------------------------------------------------
  alpha Z        PSCENC =        47.94900195
  Ewald energy   TEWEN  =     44407.38298792
  -Hartree energ DENC   =    -51411.48921236
  -exchange      EXHF   =         0.00000000
  -V(xc)+E(xc)   XCENC  =       385.29028377
  PAW double counting   =     78923.70776264   -78637.02513204
  entropy T*S    EENTRO =        -0.00000000
  eigenvalues    EBANDS =     -2666.86380201
  atomic energy  EATOM  =      8557.41276814
  ---------------------------------------------------
  free energy    TOTEN  =      -393.63534197 eV

  energy without entropy =     -393.63534197  energy(sigma->0) =     -393.63534197


--------------------------------------------------------------------------------------------------------




--------------------------------------- Iteration      1(  18)  ---------------------------------------


    POTLOK:  cpu time    4.2593: real time    4.2904
    SETDIJ:  cpu time    0.0524: real time    0.0526
    TRIAL :  cpu time    1.1646: real time    1.1777
    CORREC:  cpu time    4.7361: real time    4.7753
    CHARGE:  cpu time    0.1793: real time    0.1814
    --------------------------------------------
      LOOP:  cpu time   10.4602: real time   10.5535

 eigenvalue-minimisations  :     0
 total energy-change (2. order) :-0.1307377E-03  (-0.4668411E-04)
 number of electron     216.0000000 magnetization 
 augmentation part       -0.3563965 magnetization 

 Free energy of the ion-electron system (eV)
  ---------------------------------------------------
  alpha Z        PSCENC =        47.94900195
  Ewald energy   TEWEN  =     44407.38298792
  -Hartree energ DENC   =    -51411.58216053
  -exchange      EXHF   =         0.00000000
  -V(xc)+E(xc)   XCENC  =       385.29326569
  PAW double counting   =     78911.32989645   -78624.64443142
  entropy T*S    EENTRO =        -0.00000000
  eigenvalues    EBANDS =     -2666.77680092
  atomic energy  EATOM  =      8557.41276814
  ---------------------------------------------------
  free energy    TOTEN  =      -393.63547271 eV

  energy without entropy =     -393.63547271  energy(sigma->0) =     -393.63547271


--------------------------------------------------------------------------------------------------------




--------------------------------------- Iteration      1(  19)  ---------------------------------------


    POTLOK:  cpu time    4.2611: real time    4.2916
    SETDIJ:  cpu time    0.0527: real time    0.0529
    TRIAL :  cpu time    1.1649: real time    1.1763
    CORREC:  cpu time    4.7444: real time    4.7799
    CHARGE:  cpu time    0.1791: real time    0.1809
    --------------------------------------------
      LOOP:  cpu time   10.5019: real time   10.5847

 eigenvalue-minimisations  :     0
 total energy-change (2. order) :-0.4683004E-04  (-0.1572624E-04)
 number of electron     216.0000000 magnetization 
 augmentation part       -0.3563989 magnetization 

 Free energy of the ion-electron system (eV)
  ---------------------------------------------------
  alpha Z        PSCENC =        47.94900195
  Ewald energy   TEWEN  =     44407.38298792
  -Hartree energ DENC   =    -51411.61349962
  -exchange      EXHF   =         0.00000000
  -V(xc)+E(xc)   XCENC  =       385.29348110
  PAW double counting   =     78923.53378441   -78636.84613864
  entropy T*S    EENTRO =        -0.00000000
  eigenvalues    EBANDS =     -2666.74790481
  atomic energy  EATOM  =      8557.41276814
  ---------------------------------------------------
  free energy    TOTEN  =      -393.63551954 eV

  energy without entropy =     -393.63551954  energy(sigma->0) =     -393.63551954


--------------------------------------------------------------------------------------------------------




--------------------------------------- Iteration      1(  20)  ---------------------------------------


    POTLOK:  cpu time    4.2693: real time    4.3354
    SETDIJ:  cpu time    0.0524: real time    0.0526
    TRIAL :  cpu time    1.1556: real time    1.1777
    CORREC:  cpu time    4.7692: real time    4.8061
    CHARGE:  cpu time    0.1781: real time    0.1798
    --------------------------------------------
      LOOP:  cpu time   10.4947: real time   10.6262

 eigenvalue-minimisations  :     0
 total energy-change (2. order) :-0.1580115E-04  (-0.6702918E-05)
 number of electron     216.0000000 magnetization 
 augmentation part       -0.3563996 magnetization 

 Free energy of the ion-electron system (eV)
  ---------------------------------------------------
  alpha Z        PSCENC =        47.94900195
  Ewald energy   TEWEN  =     44407.38298792
  -Hartree energ DENC   =    -51411.62935150
  -exchange      EXHF   =         0.00000000
  -V(xc)+E(xc)   XCENC  =       385.29451941
  PAW double counting   =     78937.88093248   -78651.19289779
  entropy T*S    EENTRO =        -0.00000000
  eigenvalues    EBANDS =     -2666.73349595
  atomic energy  EATOM  =      8557.41276814
  ---------------------------------------------------
  free energy    TOTEN  =      -393.63553534 eV

  energy without entropy =     -393.63553534  energy(sigma->0) =     -393.63553534


--------------------------------------------------------------------------------------------------------




--------------------------------------- Iteration      1(  21)  ---------------------------------------


    POTLOK:  cpu time    4.2622: real time    4.2923
    SETDIJ:  cpu time    0.0526: real time    0.0527
    TRIAL :  cpu time    1.1647: real time    1.1761
    CORREC:  cpu time    4.7438: real time    4.7783
    CHARGE:  cpu time    0.1819: real time    0.1837
    --------------------------------------------
      LOOP:  cpu time   10.4465: real time   10.5437

 eigenvalue-minimisations  :     0
 total energy-change (2. order) :-0.6706265E-05  (-0.3487416E-05)
 number of electron     216.0000000 magnetization 
 augmentation part       -0.3563832 magnetization 

 Free energy of the ion-electron system (eV)
  ---------------------------------------------------
  alpha Z        PSCENC =        47.94900195
  Ewald energy   TEWEN  =     44407.38298792
  -Hartree energ DENC   =    -51411.60636442
  -exchange      EXHF   =         0.00000000
  -V(xc)+E(xc)   XCENC  =       385.29386353
  PAW double counting   =     78946.94428304   -78660.25616809
  entropy T*S    EENTRO =        -0.00000000
  eigenvalues    EBANDS =     -2666.75591413
  atomic energy  EATOM  =      8557.41276814
  ---------------------------------------------------
  free energy    TOTEN  =      -393.63554204 eV

  energy without entropy =     -393.63554204  energy(sigma->0) =     -393.63554204


--------------------------------------------------------------------------------------------------------




--------------------------------------- Iteration      1(  22)  ---------------------------------------


    POTLOK:  cpu time    4.2602: real time    4.2910
    SETDIJ:  cpu time    0.0525: real time    0.0527
    TRIAL :  cpu time    1.1634: real time    1.1760
    CORREC:  cpu time    4.7991: real time    4.8360
    CHARGE:  cpu time    0.1773: real time    0.1792
    --------------------------------------------
      LOOP:  cpu time   10.5361: real time   10.6190

 eigenvalue-minimisations  :     0
 total energy-change (2. order) :-0.3473673E-05  (-0.1801863E-05)
 number of electron     216.0000000 magnetization 
 augmentation part       -0.3563692 magnetization 

 Free energy of the ion-electron system (eV)
  ---------------------------------------------------
  alpha Z        PSCENC =        47.94900195
  Ewald energy   TEWEN  =     44407.38298792
  -Hartree energ DENC   =    -51411.59564317
  -exchange      EXHF   =         0.00000000
  -V(xc)+E(xc)   XCENC  =       385.29359853
  PAW double counting   =     78950.64071750   -78663.95282297
  entropy T*S    EENTRO =        -0.00000000
  eigenvalues    EBANDS =     -2666.76615343
  atomic energy  EATOM  =      8557.41276814
  ---------------------------------------------------
  free energy    TOTEN  =      -393.63554552 eV

  energy without entropy =     -393.63554552  energy(sigma->0) =     -393.63554552


--------------------------------------------------------------------------------------------------------




--------------------------------------- Iteration      1(  23)  ---------------------------------------


    POTLOK:  cpu time    4.2559: real time    4.2918
    SETDIJ:  cpu time    0.0526: real time    0.0528
    TRIAL :  cpu time    1.1574: real time    1.1689
    CORREC:  cpu time    4.7513: real time    4.7893
    CHARGE:  cpu time    0.1788: real time    0.1806
    --------------------------------------------
      LOOP:  cpu time   10.4486: real time   10.5470

 eigenvalue-minimisations  :     0
 total energy-change (2. order) :-0.1794309E-05  (-0.7207343E-06)
 number of electron     216.0000000 magnetization 
 augmentation part       -0.3563752 magnetization 

 Free energy of the ion-electron system (eV)
  ---------------------------------------------------
  alpha Z        PSCENC =        47.94900195
  Ewald energy   TEWEN  =     44407.38298792
  -Hartree energ DENC   =    -51411.58950821
  -exchange      EXHF   =         0.00000000
  -V(xc)+E(xc)   XCENC  =       385.29351924
  PAW double counting   =     78950.30645918   -78663.61874344
  entropy T*S    EENTRO =        -0.00000000
  eigenvalues    EBANDS =     -2666.77203211
  atomic energy  EATOM  =      8557.41276814
  ---------------------------------------------------
  free energy    TOTEN  =      -393.63554731 eV

  energy without entropy =     -393.63554731  energy(sigma->0) =     -393.63554731


--------------------------------------------------------------------------------------------------------




--------------------------------------- Iteration      1(  24)  ---------------------------------------


    POTLOK:  cpu time    4.3425: real time    4.3741
    SETDIJ:  cpu time    0.0527: real time    0.0528
    TRIAL :  cpu time    1.1630: real time    1.1751
    CORREC:  cpu time    4.7410: real time    4.7772
    CHARGE:  cpu time    0.1794: real time    0.1815
    --------------------------------------------
      LOOP:  cpu time   10.4876: real time   10.5897

 eigenvalue-minimisations  :     0
 total energy-change (2. order) :-0.7174094E-06  (-0.3195456E-06)
 number of electron     216.0000000 magnetization 
 augmentation part       -0.3563798 magnetization 

 Free energy of the ion-electron system (eV)
  ---------------------------------------------------
  alpha Z        PSCENC =        47.94900195
  Ewald energy   TEWEN  =     44407.38298792
  -Hartree energ DENC   =    -51411.57824146
  -exchange      EXHF   =         0.00000000
  -V(xc)+E(xc)   XCENC  =       385.29315477
  PAW double counting   =     78948.90241112   -78662.21463116
  entropy T*S    EENTRO =        -0.00000000
  eigenvalues    EBANDS =     -2666.78299932
  atomic energy  EATOM  =      8557.41276814
  ---------------------------------------------------
  free energy    TOTEN  =      -393.63554803 eV

  energy without entropy =     -393.63554803  energy(sigma->0) =     -393.63554803


--------------------------------------------------------------------------------------------------------




--------------------------------------- Iteration      1(  25)  ---------------------------------------


    POTLOK:  cpu time    4.2710: real time    4.3014
    SETDIJ:  cpu time    0.0528: real time    0.0530
    TRIAL :  cpu time    1.1725: real time    1.1835
    CORREC:  cpu time    4.7759: real time    4.8128
    CHARGE:  cpu time    0.1791: real time    0.1811
    --------------------------------------------
      LOOP:  cpu time   10.5134: real time   10.5975

 eigenvalue-minimisations  :     0
 total energy-change (2. order) :-0.3109890E-06  (-0.1773439E-06)
 number of electron     216.0000000 magnetization 
 augmentation part       -0.3563884 magnetization 

 Free energy of the ion-electron system (eV)
  ---------------------------------------------------
  alpha Z        PSCENC =        47.94900195
  Ewald energy   TEWEN  =     44407.38298792
  -Hartree energ DENC   =    -51411.58210333
  -exchange      EXHF   =         0.00000000
  -V(xc)+E(xc)   XCENC  =       385.29336760
  PAW double counting   =     78947.78275478   -78661.09499879
  entropy T*S    EENTRO =        -0.00000000
  eigenvalues    EBANDS =     -2666.77932663
  atomic energy  EATOM  =      8557.41276814
  ---------------------------------------------------
  free energy    TOTEN  =      -393.63554834 eV

  energy without entropy =     -393.63554834  energy(sigma->0) =     -393.63554834


--------------------------------------------------------------------------------------------------------




--------------------------------------- Iteration      1(  26)  ---------------------------------------


    POTLOK:  cpu time    4.2558: real time    4.2871
    SETDIJ:  cpu time    0.0525: real time    0.0527
    TRIAL :  cpu time    1.1664: real time    1.1779
    CORREC:  cpu time    4.7417: real time    4.7781
    CHARGE:  cpu time    0.1805: real time    0.1823
    --------------------------------------------
      LOOP:  cpu time   10.4597: real time   10.5545

 eigenvalue-minimisations  :     0
 total energy-change (2. order) :-0.1477893E-06  (-0.8050779E-07)
 number of electron     216.0000000 magnetization 
 augmentation part       -0.3563904 magnetization 

 Free energy of the ion-electron system (eV)
  ---------------------------------------------------
  alpha Z        PSCENC =        47.94900195
  Ewald energy   TEWEN  =     44407.38298792
  -Hartree energ DENC   =    -51411.58181230
  -exchange      EXHF   =         0.00000000
  -V(xc)+E(xc)   XCENC  =       385.29327437
  PAW double counting   =     78946.94808024   -78660.26029588
  entropy T*S    EENTRO =        -0.00000000
  eigenvalues    EBANDS =     -2666.77955295
  atomic energy  EATOM  =      8557.41276814
  ---------------------------------------------------
  free energy    TOTEN  =      -393.63554849 eV

  energy without entropy =     -393.63554849  energy(sigma->0) =     -393.63554849


--------------------------------------------------------------------------------------------------------




--------------------------------------- Iteration      1(  27)  ---------------------------------------


    POTLOK:  cpu time    4.2728: real time    4.3029
    SETDIJ:  cpu time    0.0525: real time    0.0527
    TRIAL :  cpu time    1.1646: real time    1.1754
    CORREC:  cpu time    4.7367: real time    4.7731
    EDDIAG:  cpu time    0.4387: real time    0.4441
    CHARGE:  cpu time    0.1767: real time    0.1788
    --------------------------------------------
      LOOP:  cpu time   10.8540: real time   10.9461

 eigenvalue-minimisations  :     0
 total energy-change (2. order) :-0.6094342E-07  (-0.3911228E-07)
 number of electron     216.0000000 magnetization 
 augmentation part       -0.3563918 magnetization 

 Free energy of the ion-electron system (eV)
  ---------------------------------------------------
  alpha Z        PSCENC =        47.94900195
  Ewald energy   TEWEN  =     44407.38298792
  -Hartree energ DENC   =    -51411.58492712
  -exchange      EXHF   =         0.00000000
  -V(xc)+E(xc)   XCENC  =       385.29339212
  PAW double counting   =     78946.61285435   -78659.92511900
  entropy T*S    EENTRO =        -0.00000000
  eigenvalues    EBANDS =     -2666.77650690
  atomic energy  EATOM  =      8557.41276814
  ---------------------------------------------------
  free energy    TOTEN  =      -393.63554855 eV

  energy without entropy =     -393.63554855  energy(sigma->0) =     -393.63554855


--------------------------------------------------------------------------------------------------------


  average scaling for gradient   0.8670


 average (electrostatic) potential at core
  the test charge radii are     0.5770  0.5955
  (the norm of the test charge is              1.0000)
       1 -86.7842       2 -86.7830       3 -86.7857       4 -86.7880       5 -86.7812
       6 -86.7804       7 -86.7854       8 -86.7826       9 -86.7826      10 -86.7851
[...]
      16 -86.7810      17 -86.7820      18 -86.7831      19 -86.7840      20 -86.7822
      21 -86.7803      22 -86.7799      23 -86.7893      24 -86.7889      25 -86.7801
      26 -86.7810      27 -86.7830      28 -86.7852      29 -86.7804      30 -86.7803
      31 -86.7868      32 -86.7848      33 -86.7816      34 -86.7808      35 -86.7808
      36 -86.7815      37 -86.7828      38 -86.7836      39 -86.7837      40 -86.7833
      41 -86.7834      42 -86.7842      43 -86.7822      44 -86.7843      45 -86.7803
      46 -86.7808      47 -86.7812      48 -86.7806      49 -86.7833      50 -86.7823
      51 -91.0774      52-120.8428      53-120.8428
 
 
 
 E-fermi :  -4.3796     XC(G=0):  -2.2912     alpha+bet : -1.6890

 Fermi energy:        -4.3795786895

 k-point     1 :       0.0000    0.0000    0.0000
  band No.  band energies     occupation 
      1     -27.9113      2.00000
      2     -26.9618      2.00000
      3     -22.3931      2.00000
      4     -21.4669      2.00000
      5     -21.4664      2.00000
      6     -21.4662      2.00000
      7     -21.4647      2.00000
      8     -21.4639      2.00000
      9     -21.4638      2.00000
     10     -19.6505      2.00000
     11     -19.6502      2.00000
     12     -19.6499      2.00000
     13     -19.6497      2.00000
     14     -19.6495      2.00000
     15     -19.6495      2.00000
     16     -18.7701      2.00000
     17     -18.7701      2.00000
     18     -18.7698      2.00000
     19     -18.7691      2.00000
     20     -18.7690      2.00000
     21     -18.7688      2.00000
     22     -16.6747      2.00000
     23     -16.6744      2.00000
     24     -16.6737      2.00000
     25     -16.6734      2.00000
     26     -16.6725      2.00000
     27     -16.6724      2.00000
     28     -15.6296      2.00000
     29     -15.6296      2.00000
     30     -15.6292      2.00000
     31     -15.6291      2.00000
     32     -15.6284      2.00000
     33     -15.6282      2.00000
     34     -14.3174      2.00000
     35     -14.3173      2.00000
     36     -14.3167      2.00000
     37     -14.3165      2.00000
     38     -14.3164      2.00000
     39     -14.3161      2.00000
     40     -12.7922      2.00000
     41     -12.0208      2.00000
     42     -12.0206      2.00000
     43     -12.0201      2.00000
     44     -12.0201      2.00000
     45     -12.0192      2.00000
     46     -12.0189      2.00000
     47     -11.8526      2.00000
     48     -11.8526      2.00000
     49     -11.8520      2.00000
     50     -11.8519      2.00000
     51     -11.8510      2.00000
     52     -11.8508      2.00000
     53     -11.6803      2.00000
     54     -11.5127      2.00000
     55     -11.5119      2.00000
     56     -10.5720      2.00000
     57     -10.5015      2.00000
     58     -10.5013      2.00000
     59     -10.4999      2.00000
     60     -10.4995      2.00000
     61     -10.4994      2.00000
     62     -10.4994      2.00000
     63      -9.4634      2.00000
     64      -9.4621      2.00000
     65      -9.4604      2.00000
     66      -9.4593      2.00000
     67      -9.4577      2.00000
     68      -9.4577      2.00000
     69      -9.3192      2.00000
     70      -9.3185      2.00000
     71      -9.3183      2.00000
     72      -9.3178      2.00000
     73      -9.3173      2.00000
     74      -9.3172      2.00000
     75      -9.2629      2.00000
     76      -9.2629      2.00000
     77      -9.2627      2.00000
     78      -9.2626      2.00000
     79      -9.2619      2.00000
     80      -9.2611      2.00000
     81      -8.0198      2.00000
     82      -8.0191      2.00000
     83      -7.7098      2.00000
     84      -7.7086      2.00000
     85      -7.7082      2.00000
     86      -7.7077      2.00000
     87      -7.7063      2.00000
     88      -7.7062      2.00000
     89      -7.3433      2.00000
     90      -7.3432      2.00000
     91      -7.3432      2.00000
     92      -7.3426      2.00000
     93      -7.3424      2.00000
     94      -7.3422      2.00000
     95      -6.4548      2.00000
     96      -6.4537      2.00000
     97      -6.4535      2.00000
     98      -6.4531      2.00000
     99      -6.4528      2.00000
    100      -6.4523      2.00000
    101      -6.2854      2.00000
    102      -6.2832      2.00000
    103      -4.4883      2.00000
    104      -4.4881      2.00000
    105      -4.4879      2.00000
    106      -4.4875      2.00000
    107      -4.4855      2.00000
    108      -4.4853      2.00000
    109      -1.7027      0.00000
    110      -1.7024      0.00000
    111      -1.7008      0.00000
    112      -1.7005      0.00000
    113      -1.7003      0.00000
    114      -1.7003      0.00000
    115      -0.5991      0.00000
    116      -0.0477      0.00000
    117       0.1437      0.00000
    118       0.1444      0.00000
    119       0.1450      0.00000
    120       0.1459      0.00000
    121       0.1461      0.00000
    122       0.1483      0.00000
    123       0.3810      0.00000
    124       0.4074      0.00000
    125       0.7314      0.00000
    126       0.8149      0.00000
    127       0.8355      0.00000
    128       0.9024      0.00000
    129       0.9086      0.00000
    130       0.9187      0.00000
    131       0.9531      0.00000
    132       1.2610      0.00000
    133       1.5699      0.00000
    134       1.6674      0.00000
    135       1.7091      0.00000
    136       1.8539      0.00000


--------------------------------------------------------------------------------------------------------


 soft charge-density along one line, spin component           1
         0         1         2         3         4         5         6         7         8         9
 total charge-density along one line
 
 pseudopotential strength for first ion, spin component:           1
 12.619  21.238   0.000  -0.000  -0.000   0.000  -0.000  -0.000
 21.238  35.742   0.000  -0.000  -0.000   0.000  -0.000  -0.000
  0.000   0.000  -3.327  -0.000   0.000  -5.962  -0.000   0.000
 -0.000  -0.000  -0.000  -3.362  -0.000  -0.000  -6.024  -0.000
 -0.000  -0.000   0.000  -0.000  -3.327   0.000  -0.000  -5.962
  0.000   0.000  -5.962  -0.000   0.000 -10.663  -0.000   0.000
 -0.000  -0.000  -0.000  -6.024  -0.000  -0.000 -10.773  -0.000
 -0.000  -0.000   0.000  -0.000  -5.962   0.000  -0.000 -10.663
 total augmentation occupancy for first ion, spin component:           1
  6.241  -2.004  -0.000  -0.002  -0.000   0.000   0.001   0.000
 -2.004   0.691   0.000   0.001  -0.000  -0.000  -0.000  -0.000
 -0.000   0.000   5.992  -0.007   0.000  -1.878   0.003  -0.000
 -0.002   0.001  -0.007   2.311  -0.000   0.003  -0.483   0.000
 -0.000  -0.000   0.000  -0.000   5.992  -0.000   0.000  -1.878
  0.000  -0.000  -1.878   0.003  -0.000   0.606  -0.001   0.000
  0.001  -0.000   0.003  -0.483   0.000  -0.001   0.111  -0.000
  0.000  -0.000  -0.000   0.000  -1.878   0.000  -0.000   0.606


------------------------ aborting loop because EDIFF is reached ----------------------------------------


    FORLOC:  cpu time    0.0679: real time    0.0684
    FORNL :  cpu time    0.8442: real time    0.8485
    FORCOR:  cpu time    4.3691: real time    4.4001
    OFIELD:  cpu time    0.0017: real time    0.0018

 VOLUME and BASIS-vectors are now :
 -----------------------------------------------------------------------------
  energy-cutoff  :     1000.00
  volume of cell :     3288.85
      direct lattice vectors                 reciprocal lattice vectors
    12.325000000  0.000000000  0.000000000     0.081135903  0.046843835  0.000000000
    -6.162500000 10.673763102  0.000000000     0.000000000  0.093687670  0.000000000
     0.000000000  0.000000000 25.000000000     0.000000000  0.000000000  0.040000000

  length of vectors
    12.325000000 12.325000000 25.000000000     0.093687670  0.093687670  0.040000000


 FORCES acting on ions:
    Electron-Ion                     Ewald-Force                    Non-Local-Force
 -----------------------------------------------------------------------------------------------
   0.377E+01 0.327E+01 0.233E+02   -.377E+01 -.327E+01 -.233E+02   0.807E-02 -.113E-02 0.771E-02
   0.548E+01 0.267E+01 0.264E+02   -.549E+01 -.267E+01 -.264E+02   0.915E-02 -.437E-02 -.580E-02
   0.235E+01 0.630E+01 0.285E+02   -.235E+01 -.631E+01 -.286E+02   -.850E-03 0.180E-01 0.560E-02
   0.311E+01 0.450E+01 0.352E+02   -.312E+01 -.451E+01 -.352E+02   0.172E-01 0.342E-02 -.132E-02
   0.402E+01 0.954E+00 0.235E+02   -.402E+01 -.952E+00 -.235E+02   0.262E-02 -.805E-02 0.701E-03
   0.413E+01 -.813E+00 0.238E+02   -.413E+01 0.816E+00 -.238E+02   -.639E-02 0.170E-02 -.740E-02
   0.589E+01 0.215E+01 0.334E+02   -.590E+01 -.215E+01 -.334E+02   0.201E-01 -.229E-01 -.114E-02
   0.571E+01 -.204E+01 0.347E+02   -.572E+01 0.205E+01 -.347E+02   0.139E-02 -.104E-01 -.645E-02
   -.281E+01 0.568E+01 0.287E+02   0.282E+01 -.569E+01 -.287E+02   -.571E-02 -.695E-02 -.691E-02
   -.423E+01 0.356E+01 0.346E+02   0.425E+01 -.357E+01 -.346E+02   -.343E-01 0.208E-01 0.776E-02
   0.105E+01 -.103E+01 0.212E+02   -.104E+01 0.103E+01 -.212E+02   0.180E-02 -.206E-02 -.293E-02
   0.904E+00 -.757E+00 0.205E+02   -.901E+00 0.756E+00 -.205E+02   -.942E-02 0.433E-02 0.390E-02
   0.226E+01 -.485E+01 0.369E+02   -.227E+01 0.486E+01 -.369E+02   0.350E-01 -.141E-01 0.317E-02
   0.128E+01 -.632E+01 0.297E+02   -.129E+01 0.633E+01 -.297E+02   0.909E-02 0.125E-02 -.183E-01
   -.363E+01 0.223E+01 0.229E+02   0.363E+01 -.224E+01 -.229E+02   0.702E-02 -.326E-02 0.298E-02
   -.495E+01 0.147E+01 0.244E+02   0.496E+01 -.147E+01 -.244E+02   -.500E-02 0.777E-02 -.986E-02
   -.644E+00 -.254E+00 0.199E+02   0.650E+00 0.251E+00 -.199E+02   -.335E-02 0.141E-02 0.120E-02
   0.299E+00 0.224E+01 0.205E+02   -.296E+00 -.224E+01 -.205E+02   -.504E-02 0.306E-02 0.939E-02
   -.961E+00 -.593E+01 0.261E+02   0.956E+00 0.593E+01 -.261E+02   0.974E-02 -.502E-02 0.152E-02
   -.509E+00 -.335E+01 0.218E+02   0.503E+00 0.336E+01 -.218E+02   0.278E-02 -.346E-02 -.149E-02
   0.548E+01 -.242E+01 0.276E+02   -.548E+01 0.242E+01 -.275E+02   0.197E-02 -.518E-02 -.235E-01
   0.366E+01 -.304E+01 0.247E+02   -.366E+01 0.304E+01 -.247E+02   -.618E-02 0.521E-02 -.771E-02
   -.109E+01 0.207E+01 0.394E+02   0.109E+01 -.207E+01 -.394E+02   -.140E-01 0.139E-01 0.203E-01
   -.148E+01 -.324E+01 0.388E+02   0.148E+01 0.325E+01 -.388E+02   0.143E-01 -.201E-01 0.658E-02
   0.193E+01 -.765E+00 0.213E+02   -.192E+01 0.763E+00 -.213E+02   0.137E-02 -.172E-02 -.683E-02
   0.437E+00 0.169E+01 0.213E+02   -.434E+00 -.169E+01 -.213E+02   -.770E-02 0.492E-02 0.296E-02
   -.635E+01 0.875E+00 0.301E+02   0.637E+01 -.881E+00 -.301E+02   0.411E-02 0.111E-01 -.306E-02
   -.609E+01 -.242E+01 0.288E+02   0.610E+01 0.242E+01 -.288E+02   -.155E-01 0.114E-01 0.429E-02
   0.217E+01 -.434E+01 0.253E+02   -.217E+01 0.434E+01 -.253E+02   0.810E-02 0.937E-03 -.117E-01
   0.189E+00 -.183E+01 0.221E+02   -.193E+00 0.183E+01 -.221E+02   -.311E-02 0.260E-02 -.581E-02
   -.449E+01 -.469E+01 0.320E+02   0.450E+01 0.470E+01 -.320E+02   -.172E-01 -.109E-01 -.326E-02
   -.305E+01 -.565E+01 0.267E+02   0.306E+01 0.566E+01 -.267E+02   0.786E-03 -.674E-02 0.662E-02
   0.252E+00 0.100E+01 0.204E+02   -.255E+00 -.100E+01 -.204E+02   0.741E-02 -.559E-02 0.558E-02
   0.653E+00 0.983E+00 0.212E+02   -.657E+00 -.981E+00 -.211E+02   -.122E-02 0.344E-02 -.376E-02
   -.254E+01 0.402E+00 0.220E+02   0.254E+01 -.404E+00 -.220E+02   0.361E-02 -.150E-02 0.293E-02
   -.225E+01 -.951E+00 0.217E+02   0.225E+01 0.949E+00 -.217E+02   -.701E-02 0.381E-02 0.156E-02
   -.437E+01 -.227E+01 0.234E+02   0.438E+01 0.227E+01 -.234E+02   -.607E-02 0.157E-02 0.325E-02
   -.277E+01 -.221E+01 0.215E+02   0.277E+01 0.221E+01 -.215E+02   -.681E-02 0.156E-02 0.980E-02
   -.253E+01 -.325E+01 0.223E+02   0.253E+01 0.326E+01 -.223E+02   -.545E-02 -.135E-02 0.653E-02
   -.384E+00 -.837E+00 0.206E+02   0.384E+00 0.838E+00 -.206E+02   0.253E-02 -.479E-03 0.829E-02
   0.949E+00 0.236E+01 0.210E+02   -.949E+00 -.236E+01 -.210E+02   -.449E-02 0.389E-02 0.793E-02
   0.294E+01 0.459E+01 0.238E+02   -.294E+01 -.460E+01 -.238E+02   0.252E-02 0.171E-02 0.107E-01
   0.265E+00 0.399E+01 0.220E+02   -.258E+00 -.400E+01 -.220E+02   -.327E-02 0.402E-02 0.110E-02
   -.728E-01 0.628E+01 0.265E+02   0.793E-01 -.629E+01 -.265E+02   -.126E-01 0.618E-02 0.660E-02
   -.752E+00 0.145E+01 0.219E+02   0.755E+00 -.145E+01 -.219E+02   0.293E-02 -.258E-02 -.221E-02
   -.293E+01 0.362E+01 0.241E+02   0.293E+01 -.362E+01 -.241E+02   -.921E-02 0.215E-02 -.622E-02
   -.647E+00 -.167E+01 0.212E+02   0.644E+00 0.167E+01 -.212E+02   0.874E-02 -.219E-02 0.387E-02
   -.152E+01 0.573E+00 0.205E+02   0.151E+01 -.572E+00 -.205E+02   -.159E-02 0.266E-02 -.605E-02
   0.156E+00 -.105E+01 0.205E+02   -.159E+00 0.105E+01 -.205E+02   0.597E-02 -.384E-02 0.599E-02
   0.165E+01 0.119E+01 0.206E+02   -.166E+01 -.118E+01 -.206E+02   0.295E-02 0.999E-03 0.304E-02
   0.227E-01 -.633E-03 -.316E+03   -.242E-01 0.233E-02 0.316E+03   -.298E-02 0.222E-02 -.457E-02
   -.229E+03 0.156E+03 -.487E+03   0.279E+03 -.190E+03 0.491E+03   -.513E+02 0.349E+02 -.346E+01
   0.229E+03 -.156E+03 -.465E+03   -.279E+03 0.190E+03 0.462E+03   0.513E+02 -.349E+02 0.308E+01
 -----------------------------------------------------------------------------------------------
   -.446E-02 0.116E-01 0.359E+00   0.171E-12 -.142E-12 -.171E-12   0.466E-02 -.118E-01 -.359E+00
 
 
 POSITION                                       TOTAL-FORCE (eV/Angst)
 -----------------------------------------------------------------------------------
     11.98348      0.00342      0.01417         0.002834     -0.001411     -0.000775
     -0.34154      1.42665      0.01100        -0.002039      0.000131     -0.003130
      2.12355      0.00315      0.01249        -0.001734      0.008788     -0.005468
      2.12326      1.42653      0.00641         0.011691      0.000295     -0.006092
     10.75099      2.13819      0.01213         0.000356     -0.005081      0.000227
     -1.57382      3.56123      0.01110        -0.008199      0.004804     -0.001421
      0.89078      2.13854      0.00548         0.007761     -0.017680      0.003156
      0.89099      3.56147      0.00181        -0.013125     -0.001528      0.012224
      4.58864      0.00346      0.01135         0.004391     -0.016504     -0.003102
      4.58894      1.42623      0.00646        -0.020401      0.011373      0.014896
      9.51854      4.27281      0.01369         0.006756     -0.003205      0.000333
     -2.80632      5.69591      0.01434        -0.006215      0.003269      0.001044
      2.12300      4.27302      0.00000         0.022254     -0.003493      0.021228
      2.12335      5.69594      0.00581        -0.001493      0.010104     -0.002567
      7.05344      0.00333      0.01399         0.008641     -0.004883     -0.000003
      7.05353      1.42635      0.01368        -0.001257      0.004226     -0.003588
      8.28610      6.40752      0.01601         0.003322     -0.001581     -0.000547
     -4.03885      7.83070      0.01636        -0.001981      0.000941      0.000222
      3.35586      6.40753      0.01007         0.004651      0.000735     -0.001195
      3.35599      7.83072      0.01320        -0.003500      0.000473     -0.000481
     -0.34146      4.27290      0.00723        -0.002324     -0.000795     -0.004563
     -0.34138      5.69591      0.00946        -0.008586      0.005911     -0.001019
      3.35624      2.13791      0.00222        -0.012693      0.010671      0.019158
      3.35573      3.56155      0.00139         0.013027     -0.014138      0.011123
     -1.57395      6.40758      0.01311         0.005775     -0.004072     -0.000553
     -1.57385      7.83068      0.01438        -0.004490      0.003698      0.000375
      5.82093      2.13784      0.01033         0.016964      0.004500     -0.002315
      5.82114      3.56097      0.01156        -0.005111      0.007723     -0.003111
      0.89092      6.40755      0.00907         0.003961      0.002043     -0.002206
      0.89106      7.83068      0.01235        -0.006839      0.003481      0.000401
      4.58871      4.27293      0.00850        -0.011037     -0.005110     -0.009394
      4.58852      5.69606      0.01149         0.001995     -0.000149     -0.003404
      9.51845      0.00337      0.01490         0.004441     -0.004442      0.000483
      9.51855      1.42644      0.01438        -0.005128      0.005543     -0.000190
      8.28593      2.13803      0.01453         0.006201     -0.003501      0.000842
      8.28613      3.56115      0.01464        -0.004154      0.001900      0.000265
      7.05356      4.27269      0.01457         0.003571     -0.001082     -0.000277
      7.05362      5.69588      0.01553        -0.002297      0.001409      0.000215
      5.82112      6.40755      0.01489        -0.002535      0.001885      0.000183
      5.82102      7.83073      0.01579         0.002666      0.000361      0.000021
      7.05363      8.54227      0.01631        -0.004532      0.000917      0.001343
     -5.27149      9.96549      0.01495        -0.000242     -0.002435     -0.001655
     -2.80638      8.54234      0.01558         0.003479     -0.001938     -0.000882
     -2.80627      9.96553      0.01362        -0.005795     -0.000447     -0.003303
     -0.34149      8.54239      0.01378         0.005677     -0.004499      0.000411
     -0.34138      9.96550      0.01354        -0.005184     -0.000043     -0.001063
      2.12343      8.54232      0.01336         0.005479     -0.001481      0.001047
      2.12354      9.96544      0.01469        -0.005525      0.003911     -0.001765
      4.58846      8.54235      0.01505         0.003491     -0.002759      0.001163
      4.58853      9.96550      0.01517        -0.003227      0.003303      0.000428
      3.04930      2.68154      5.29732        -0.004323      0.003841      0.019153
      4.02070      2.02068      5.36174        -0.482088      0.327618     -0.052949
      2.07767      3.34267      5.23786         0.486669     -0.331598      0.007075
 -----------------------------------------------------------------------------------
    total drift:                                0.000203     -0.000136     -0.000938


--------------------------------------------------------------------------------------------------------



  FREE ENERGIE OF THE ION-ELECTRON SYSTEM (eV)
  ---------------------------------------------------
  free  energy   TOTEN  =      -393.63554855 eV

  energy  without entropy=     -393.63554855  energy(sigma->0) =     -393.63554855
 


--------------------------------------------------------------------------------------------------------


    POTLOK:  cpu time    4.3328: real time    4.3639


--------------------------------------------------------------------------------------------------------


     LOOP+:  cpu time  285.4074: real time  287.9924
    4ORBIT:  cpu time    0.0000: real time    0.0000

 total amount of memory used by VASP MPI-rank0   100580. kBytes
=======================================================================

   base      :      30000. kBytes
   nonl-proj :       8229. kBytes
   fftplans  :      18352. kBytes
   grid      :      30208. kBytes
   one-center:          6. kBytes
   wavefun   :      13785. kBytes
 
  
  
 General timing and accounting informations for this job:
 ========================================================
  
                  Total CPU time used (sec):      328.112
                            User time (sec):      303.150
                          System time (sec):       24.962
                         Elapsed time (sec):      331.691
  
                   Maximum memory used (kb):      816516.
                   Average memory used (kb):          N/A
  
                          Minor page faults:       400112
                          Major page faults:           80
                 Voluntary context switches:         3618
