 vasp.6.2.1 16May21 (build Nov 06 2021 14:46:37) complex                        
  
 executed on             LinuxIFC date 2025.04.16  18:51:49
 running on  112 total cores
 distrk:  each k-point on  112 cores,    1 groups
 distr:  one band on NCORE=  28 cores,    4 groups


--------------------------------------------------------------------------------------------------------


 INCAR:
   NPAR = 4
   ALGO = Conjugate
   ISMEAR = 0
   SIGMA = 0.01
   PREC = Accurate
   EDIFF = 1E-7
   ENCUT = 1000
   ISIF = 0
   GGA = ML
   LUSE_VDW = .TRUE.
   ZAB_VDW = -1.8867
   AGGAC = 0.0000
   LASPH = .TRUE.
   SYMPREC = 1E-7
   LWAVE = .FALSE.
   LCHARGE = .FALSE.

 POTCAR:    PAW_PBE C_h 06Feb2004                 
 POTCAR:    PAW_PBE O_h 06Feb2004                 
 -----------------------------------------------------------------------------
|                                                                             |
|           W    W    AA    RRRRR   N    N  II  N    N   GGGG   !!!           |
|           W    W   A  A   R    R  NN   N  II  NN   N  G    G  !!!           |
|           W    W  A    A  R    R  N N  N  II  N N  N  G       !!!           |
|           W WW W  AAAAAA  RRRRR   N  N N  II  N  N N  G  GGG   !            |
|           WW  WW  A    A  R   R   N   NN  II  N   NN  G    G                |
|           W    W  A    A  R    R  N    N  II  N    N   GGGG   !!!           |
|                                                                             |
|     For optimal performance we recommend to set                             |
|       NCORE = 2 up to number-of-cores-per-socket                            |
|     NCORE specifies how many cores store one orbital (NPAR=cpu/NCORE).      |
|     This setting can greatly improve the performance of VASP for DFT.       |
|     The default, NCORE=1 might be grossly inefficient on modern             |
|     multi-core architectures or massively parallel machines. Do your        |
|     own testing! More info at https://www.vasp.at/wiki/index.php/NCORE      |
|     Unfortunately you need to use the default for GW and RPA                |
|     calculations (for HF NCORE is supported but not extensively tested      |
|     yet).                                                                   |
|                                                                             |
 -----------------------------------------------------------------------------

 -----------------------------------------------------------------------------
|                                                                             |
|               ----> ADVICE to this user running VASP <----                  |
|                                                                             |
|     You have switched on vdW-DFT.                                           |
|     This routine was written and supplied by Jiri Klimes. We recommend      |
|     that you carefully read and cite the following publications:            |
|       J. Klimes, D.R. Bowler, A. Michelides                                 |
|          J. Phys.: Cond Matt. 22 022201 (2010)                              |
|       J. Klimes, D.R. Bowler, A. Michelides                                 |
|          Phys. Rev. B. 83, 195131 (2011)                                    |
|     and references therein.                                                 |
|                                                                             |
 -----------------------------------------------------------------------------

 POTCAR:    PAW_PBE C_h 06Feb2004                 
   VRHFIN =C: s2p2                                                                                  
   LEXCH  = PE                                                                                      
   EATOM  =   147.1560 eV,   10.8157 Ry                                                             
                                                                                                    
   TITEL  = PAW_PBE C_h 06Feb2004                                                                   
   LULTRA =        F    use ultrasoft PP ?                                                          
   IUNSCR =        1    unscreen: 0-lin 1-nonlin 2-no                                               
   RPACOR =    0.800    partial core radius                                                         
   POMASS =   12.011; ZVAL   =    4.000    mass and valenz                                          
   RCORE  =    1.100    outmost cutoff radius                                                       
   RWIGS  =    1.630; RWIGS  =    0.863    wigner-seitz radius (au A)                               
   ENMAX  =  700.000; ENMIN  =  500.000 eV                                                          
   ICORE  =        2    local potential                                                             
   LCOR   =        T    correct aug charges                                                         
   LPAW   =        T    paw PP                                                                      
   EAUG   =  946.768                                                                                
   DEXC   =    0.000                                                                                
   RMAX   =    1.128    core radius for proj-oper                                                   
   RAUG   =    1.300    factor for augmentation sphere                                              
   RDEP   =    1.162    radius for radial grids                                                     
   RDEPT  =    1.088    core radius for aug-charge                                                  
                                                                                                    
   Atomic configuration                                                                             
    4 entries                                                                                       
     n  l   j            E        occ.                                                              
     1  0  0.50      -273.3789   2.0000                                                             
     2  0  0.50       -13.7508   2.0000                                                             
     2  1  0.50        -5.2854   2.0000                                                             
     3  2  1.50        -5.4423   0.0000                                                             
   Description                                                                                      
     l       E           TYP  RCUT    TYP  RCUT                                                     
     0    -13.7508458     23  1.100                                                                 
     0     -8.2022199     23  1.100                                                                 
     1     -5.2854383     23  1.100                                                                 
     1      1.1560700     23  1.100                                                                 
     2     -5.4423304      7  1.100                                                                 
  local pseudopotential read in
  partial core-charges read in
  partial kinetic energy density read in
  atomic valenz-charges read in
  non local Contribution for L=           0  read in
    real space projection operators read in
  non local Contribution for L=           0  read in
    real space projection operators read in
  non local Contribution for L=           1  read in
    real space projection operators read in
  non local Contribution for L=           1  read in
    real space projection operators read in
    PAW grid and wavefunctions read in
 
   number of l-projection  operators is LMAX  =           4
   number of lm-projection operators is LMMAX =           8
 
 POTCAR:    PAW_PBE O_h 06Feb2004                 
   VRHFIN =O: s2p4                                                                                  
   LEXCH  = PE                                                                                      
   EATOM  =   432.3788 eV,   31.7789 Ry                                                             
                                                                                                    
   TITEL  = PAW_PBE O_h 06Feb2004                                                                   
   LULTRA =        F    use ultrasoft PP ?                                                          
   IUNSCR =        1    unscreen: 0-lin 1-nonlin 2-no                                               
   RPACOR =    0.800    partial core radius                                                         
   POMASS =   16.000; ZVAL   =    6.000    mass and valenz                                          
   RCORE  =    1.100    outmost cutoff radius                                                       
   RWIGS  =    1.400; RWIGS  =    0.741    wigner-seitz radius (au A)                               
   ENMAX  =  700.000; ENMIN  =  500.000 eV                                                          
   ICORE  =        2    local potential                                                             
   LCOR   =        T    correct aug charges                                                         
   LPAW   =        T    paw PP                                                                      
   EAUG   =  888.804                                                                                
   DEXC   =    0.000                                                                                
   RMAX   =    1.128    core radius for proj-oper                                                   
   RAUG   =    1.300    factor for augmentation sphere                                              
   RDEP   =    1.125    radius for radial grids                                                     
   RDEPT  =    1.088    core radius for aug-charge                                                  
                                                                                                    
   Atomic configuration                                                                             
    4 entries                                                                                       
     n  l   j            E        occ.                                                              
     1  0  0.50      -514.6923   2.0000                                                             
     2  0  0.50       -23.9615   2.0000                                                             
     2  1  0.50        -9.0305   4.0000                                                             
     3  2  1.50        -9.5241   0.0000                                                             
   Description                                                                                      
     l       E           TYP  RCUT    TYP  RCUT                                                     
     0    -23.9615319     23  1.100                                                                 
     0    -25.3221145     23  1.100                                                                 
     1     -9.0304911     23  1.100                                                                 
     1     -5.4802209     23  1.100                                                                 
     2     -9.5240782      7  1.100                                                                 
  local pseudopotential read in
  partial core-charges read in
  partial kinetic energy density read in
  atomic valenz-charges read in
  non local Contribution for L=           0  read in
    real space projection operators read in
  non local Contribution for L=           0  read in
    real space projection operators read in
  non local Contribution for L=           1  read in
    real space projection operators read in
  non local Contribution for L=           1  read in
    real space projection operators read in
    PAW grid and wavefunctions read in
 
   number of l-projection  operators is LMAX  =           4
   number of lm-projection operators is LMMAX =           8
 
 -----------------------------------------------------------------------------
|                                                                             |
|               ----> ADVICE to this user running VASP <----                  |
|                                                                             |
|     You have a (more or less) 'large supercell' and for larger cells it     |
|     might be more efficient to use real-space projection operators.         |
|     Therefore, try LREAL= Auto in the INCAR file.                           |
|     Mind: For very accurate calculation, you might also keep the            |
|     reciprocal projection scheme (i.e. LREAL=.FALSE.).                      |
|                                                                             |
 -----------------------------------------------------------------------------

 -----------------------------------------------------------------------------
|                                                                             |
|               ----> ADVICE to this user running VASP <----                  |
|                                                                             |
|     You enforced a specific xc type in the INCAR file but a different       |
|     type was found in the POTCAR file.                                      |
|     I HOPE YOU KNOW WHAT YOU ARE DOING!                                     |
|                                                                             |
 -----------------------------------------------------------------------------

  PAW_PBE C_h 06Feb2004                 :
 energy of atom  1       EATOM= -147.1560
 kinetic energy error for atom=    0.0031 (will be added to EATOM!!)
  PAW_PBE O_h 06Feb2004                 :
 energy of atom  2       EATOM= -432.3788
 kinetic energy error for atom=    0.0171 (will be added to EATOM!!)
 
 
 POSCAR:  C  O
  positions in cartesian coordinates
  No initial velocities read in
 exchange correlation table for  LEXCH =       44
   RHO(1)=    0.500       N(1)  =     2000
   RHO(2)=  100.500       N(2)  =     4000
 


--------------------------------------------------------------------------------------------------------


 ion  position               nearest neighbor table
   1  0.972  0.000  0.001-  50 1.42   2 1.42  42 1.42
   2  0.039  0.134  0.000-   5 1.42   7 1.42   1 1.42
   3  0.172  0.000  0.000-  42 1.42  44 1.42   4 1.42
   4  0.239  0.134  0.000-   7 1.42   3 1.42  23 1.42
   5  0.972  0.200  0.000-   6 1.42   2 1.42  34 1.42
   6  0.039  0.334  0.000-   5 1.42  21 1.42  11 1.42
   7  0.172  0.200  0.000-   8 1.42   2 1.42   4 1.42
   8  0.239  0.334  0.000-  13 1.42   7 1.42  21 1.42
   9  0.372  0.000  0.000-  10 1.42  44 1.42  46 1.42
  10  0.439  0.134  0.000-  27 1.42   9 1.42  23 1.42
  11  0.972  0.400  0.001-  12 1.42  36 1.42   6 1.42
  12  0.039  0.534  0.001-  25 1.42  11 1.42  17 1.42
  13  0.372  0.400  0.000-   8 1.42  14 1.42  24 1.42
  14  0.439  0.534  0.000-  13 1.42  29 1.42  19 1.42
  15  0.572  0.000  0.001-  46 1.42  16 1.42  48 1.42
  16  0.639  0.134  0.001-  15 1.42  35 1.42  27 1.42
  17  0.972  0.600  0.001-  38 1.42  18 1.42  12 1.42
  18  0.039  0.734  0.001-  43 1.42  41 1.42  17 1.42
  19  0.572  0.600  0.000-  14 1.42  20 1.42  32 1.42
  20  0.639  0.734  0.001-  49 1.42  19 1.42  47 1.42
  21  0.172  0.400  0.000-  22 1.42   8 1.42   6 1.42
  22  0.239  0.534  0.000-  21 1.42  29 1.42  25 1.42
  23  0.372  0.200  0.000-  10 1.42   4 1.42  24 1.42
  24  0.439  0.334  0.000-  13 1.42  31 1.42  23 1.42
  25  0.172  0.600  0.001-  26 1.42  12 1.42  22 1.42
  26  0.239  0.734  0.001-  25 1.42  45 1.42  43 1.42
  27  0.572  0.200  0.000-  10 1.42  28 1.42  16 1.42
  28  0.639  0.334  0.000-  27 1.42  37 1.42  31 1.42
  29  0.372  0.600  0.000-  22 1.42  14 1.42  30 1.42
  30  0.439  0.734  0.000-  47 1.42  29 1.42  45 1.42
  31  0.572  0.400  0.000-  32 1.42  28 1.42  24 1.42
  32  0.639  0.534  0.000-  31 1.42  39 1.42  19 1.42
  33  0.772  0.000  0.001-  34 1.42  48 1.42  50 1.42
  34  0.839  0.134  0.001-  33 1.42   5 1.42  35 1.42
  35  0.772  0.200  0.001-  36 1.42  16 1.42  34 1.42
  36  0.839  0.334  0.001-  35 1.42  11 1.42  37 1.42
  37  0.772  0.400  0.001-  28 1.42  38 1.42  36 1.42
  38  0.839  0.534  0.001-  17 1.42  37 1.42  39 1.42
  39  0.772  0.600  0.001-  40 1.42  38 1.42  32 1.42
  40  0.839  0.734  0.001-  39 1.42  49 1.42  41 1.42
  41  0.972  0.800  0.001-  18 1.42  42 1.42  40 1.42
  42  0.039  0.934  0.001-   3 1.42  41 1.42   1 1.42
  43  0.172  0.800  0.001-  18 1.42  44 1.42  26 1.42
  44  0.239  0.934  0.001-   9 1.42  43 1.42   3 1.42
  45  0.372  0.800  0.001-  26 1.42  46 1.42  30 1.42
  46  0.439  0.934  0.001-  15 1.42  45 1.42   9 1.42
  47  0.572  0.800  0.001-  30 1.42  48 1.42  20 1.42
  48  0.639  0.934  0.001-  47 1.42  33 1.42  15 1.42
  49  0.772  0.800  0.001-  50 1.42  20 1.42  40 1.42
  50  0.839  0.934  0.001-  49 1.42   1 1.42  33 1.42
  51  0.373  0.251  0.141-  52 1.18  53 1.18
  52  0.421  0.189  0.144-  51 1.18
  53  0.325  0.313  0.139-  51 1.18
 
  LATTYP: Found a hexagonal cell.
 ALAT       =    12.3250000000
 C/A-ratio  =     2.0283975659
  
  Lattice vectors:
  
 A1 = (  12.3250000000,   0.0000000000,   0.0000000000)
 A2 = (  -6.1625000000,  10.6737631016,   0.0000000000)
 A3 = (   0.0000000000,   0.0000000000,  25.0000000000)


Analysis of symmetry for initial positions (statically):
=====================================================================
 Subroutine PRICEL returns:
 Original cell was already a primitive cell.
 

 Routine SETGRP: Setting up the symmetry group for a 
 hexagonal supercell.


 Subroutine GETGRP returns: Found  1 space group operations
 (whereof  1 operations were pure point group operations)
 out of a pool of 24 trial point group operations.


The static configuration has the point symmetry C_1 .


Analysis of symmetry for dynamics (positions and initial velocities):
=====================================================================
 Subroutine PRICEL returns:
 Original cell was already a primitive cell.
 

 Routine SETGRP: Setting up the symmetry group for a 
 hexagonal supercell.


 Subroutine GETGRP returns: Found  1 space group operations
 (whereof  1 operations were pure point group operations)
 out of a pool of 24 trial point group operations.


The dynamic configuration has the point symmetry C_1 .


 Subroutine INISYM returns: Found  1 space group operations
 (whereof  1 operations are pure point group operations),
 and found     1 'primitive' translations


----------------------------------------------------------------------------------------

                                     Primitive cell                                     

  volume of cell :    3288.8533

  direct lattice vectors                    reciprocal lattice vectors
    12.325000000  0.000000000  0.000000000     0.081135903  0.046843835  0.000000000
    -6.162500000 10.673763102  0.000000000     0.000000000  0.093687670  0.000000000
     0.000000000  0.000000000 25.000000000     0.000000000  0.000000000  0.040000000

  length of vectors
    12.325000000 12.325000000 25.000000000     0.093687670  0.093687670  0.040000000

  position of ions in fractional coordinates (direct lattice)
     0.972450841  0.000320818  0.000566711
     0.039118382  0.133659505  0.000440173
     0.172443627  0.000295449  0.000499628
     0.239096278  0.133647917  0.000256468
     0.972452058  0.200322012  0.000485219
     0.039128360  0.333643771  0.000444150
     0.172451764  0.200354552  0.000219167
     0.239124359  0.333665720  0.000072260
     0.372465565  0.000324403  0.000453913
     0.439137473  0.133619939  0.000258338
     0.972449824  0.400309362  0.000547611
     0.039124981  0.533636789  0.000573410
     0.372416176  0.400329481  0.000000000
     0.439099602  0.533638981  0.000232414
     0.572443676  0.000312125  0.000559580
     0.639110207  0.133631751  0.000547275
     0.972452703  0.600305653  0.000640289
     0.039124495  0.733640359  0.000654513
     0.572433471  0.600306242  0.000402895
     0.639111888  0.733641879  0.000527905
     0.172454630  0.400318228  0.000289045
     0.239120185  0.533636548  0.000378509
     0.372459750  0.200295993  0.000088997
     0.439107096  0.333673419  0.000055762
     0.172452155  0.600311506  0.000524340
     0.239123371  0.733638574  0.000575129
     0.572431082  0.200289171  0.000413296
     0.639112773  0.333618630  0.000462376
     0.372439808  0.600308022  0.000362844
     0.439116090  0.733637858  0.000494190
     0.572469358  0.400320504  0.000339918
     0.639119408  0.533650873  0.000459610
     0.772445723  0.000315427  0.000596161
     0.839116277  0.133640203  0.000575306
     0.772440513  0.200307432  0.000581033
     0.839120241  0.333635728  0.000585467
     0.772446320  0.400298367  0.000582978
     0.839118980  0.533633964  0.000621100
     0.772456143  0.600308173  0.000595712
     0.839115033  0.733643180  0.000631512
     0.972455313  0.800305582  0.000652233
     0.039114714  0.933643289  0.000598051
     0.172457971  0.800312211  0.000623372
     0.239134551  0.933647193  0.000544850
     0.372451396  0.800316674  0.000551399
     0.439124489  0.933644769  0.000541430
     0.572441101  0.800310054  0.000534535
     0.639115067  0.933638985  0.000587644
     0.772445098  0.800313187  0.000602062
     0.839116614  0.933644338  0.000606830
     0.373021009  0.251226878  0.141421356
     0.420879805  0.189313152  0.143998231
     0.325156981  0.313167186  0.139043162

  ion indices of the primitive-cell ions
   primitive index   ion index
                 1           1
                 2           2
                 3           3
                 4           4
                 5           5
                 6           6
                 7           7
                 8           8
                 9           9
                10          10
                11          11
                12          12
                13          13
                14          14
                15          15
                16          16
                17          17
                18          18
                19          19
                20          20
                21          21
                22          22
                23          23
                24          24
                25          25
                26          26
                27          27
                28          28
                29          29
                30          30
                31          31
                32          32
                33          33
                34          34
                35          35
                36          36
                37          37
                38          38
                39          39
                40          40
                41          41
                42          42
                43          43
                44          44
                45          45
                46          46
                47          47
                48          48
                49          49
                50          50
                51          51
                52          52
                53          53

----------------------------------------------------------------------------------------

 
 
 KPOINTS: auto                                    

Automatic generation of k-mesh.
 Grid dimensions read from file:
 generate k-points for:    1    1    1

 Generating k-lattice:

  Cartesian coordinates                     Fractional coordinates (reciprocal lattice)
     0.081135903  0.046843835  0.000000000     1.000000000 -0.000000000  0.000000000
     0.000000000  0.093687670  0.000000000     0.000000000  1.000000000  0.000000000
     0.000000000  0.000000000  0.040000000     0.000000000  0.000000000  1.000000000

  Length of vectors
     0.093687670  0.093687670  0.040000000

  Shift w.r.t. Gamma in fractional coordinates (k-lattice)
     0.000000000  0.000000000  0.000000000

 
 Subroutine IBZKPT returns following result:
 ===========================================
 
 Found      1 irreducible k-points:
 
 Following reciprocal coordinates:
            Coordinates               Weight
  0.000000  0.000000  0.000000      1.000000
 
 Following cartesian coordinates:
            Coordinates               Weight
  0.000000  0.000000  0.000000      1.000000
 


--------------------------------------------------------------------------------------------------------




 Dimension of arrays:
   k-points           NKPTS =      1   k-points in BZ     NKDIM =      1   number of bands    NBANDS=    136
   number of dos      NEDOS =    301   number of ions     NIONS =     53
   non local maximal  LDIM  =      4   non local SUM 2l+1 LMDIM =      8
   total plane-waves  NPLWV = ******
   max r-space proj   IRMAX =      1   max aug-charges    IRDMAX=  10008
   dimension x,y,z NGX =   128 NGY =  128 NGZ =  270
   dimension x,y,z NGXF=   256 NGYF=  256 NGZF=  540
   support grid    NGXF=   256 NGYF=  256 NGZF=  540
   ions per type =              51   2
   NGX,Y,Z   is equivalent  to a cutoff of  17.27, 17.27, 17.95 a.u.
   NGXF,Y,Z  is equivalent  to a cutoff of  34.53, 34.53, 35.91 a.u.

 SYSTEM =  unknown system                          
 POSCAR =   C  O                                   

 Startparameter for this run:
   NWRITE =      2    write-flag & timer
   PREC   = accura    normal or accurate (medium, high low for compatibility)
   ISTART =      0    job   : 0-new  1-cont  2-samecut
   ICHARG =      2    charge: 1-file 2-atom 10-const
   ISPIN  =      1    spin polarized calculation?
   LNONCOLLINEAR =      F non collinear calculations
   LSORBIT =      F    spin-orbit coupling
   INIWAV =      1    electr: 0-lowe 1-rand  2-diag
   LASPH  =      T    aspherical Exc in radial PAW
 Electronic Relaxation 1
   ENCUT  = 1000.0 eV  73.50 Ry    8.57 a.u.  31.78 31.78 64.46*2*pi/ulx,y,z
   ENINI  = 1000.0     initial cutoff
   ENAUG  =  946.8 eV  augmentation charge cutoff
   NELM   =     60;   NELMIN=  2; NELMDL= -5     # of ELM steps 
   EDIFF  = 0.1E-06   stopping-criterion for ELM
   LREAL  =      F    real-space projection
   NLSPLINE    = F    spline interpolate recip. space projectors
   LCOMPAT=      F    compatible to vasp.4.4
   GGA_COMPAT  = T    GGA compatible to vasp.4.4-vasp.4.6
   LMAXPAW     = -100 max onsite density
   LMAXMIX     =    2 max onsite mixed and CHGCAR
   VOSKOWN=      0    Vosko Wilk Nusair interpolation
   ROPT   =    0.00000   0.00000
 Ionic relaxation
   EDIFFG = 0.1E-05   stopping-criterion for IOM
   NSW    =      0    number of steps for IOM
   NBLOCK =      1;   KBLOCK =      1    inner block; outer block 
   IBRION =     -1    ionic relax: 0-MD 1-quasi-New 2-CG
   NFREE  =      0    steps in history (QN), initial steepest desc. (CG)
   ISIF   =      0    stress and relaxation
   IWAVPR =     10    prediction:  0-non 1-charg 2-wave 3-comb
   ISYM   =      2    0-nonsym 1-usesym 2-fastsym
   LCORR  =      T    Harris-Foulkes like correction to forces

   POTIM  = 0.5000    time-step for ionic-motion
   TEIN   =    0.0    initial temperature
   TEBEG  =    0.0;   TEEND  =   0.0 temperature during run
   SMASS  =  -3.00    Nose mass-parameter (am)
   estimated Nose-frequenzy (Omega)   =  0.10E-29 period in steps = 0.13E+47 mass=  -0.347E-26a.u.
   SCALEE = 1.0000    scale energy and forces
   NPACO  =    256;   APACO  = 16.0  distance and # of slots for P.C.
   PSTRESS=    0.0 pullay stress

  Mass of Ions in am
   POMASS =  12.01 16.00
  Ionic Valenz
   ZVAL   =   4.00  6.00
  Atomic Wigner-Seitz radii
   RWIGS  =  -1.00 -1.00
  virtual crystal weights 
   VCA    =   1.00  1.00
   NELECT =     216.0000    total number of electrons
   NUPDOWN=      -1.0000    fix difference up-down

 DOS related values:
   EMIN   =  10.00;   EMAX   =-10.00  energy-range for DOS
   EFERMI =   0.00
   ISMEAR =     0;   SIGMA  =   0.01  broadening in eV -4-tet -1-fermi 0-gaus

 Electronic relaxation 2 (details)
   IALGO  =     58    algorithm
   LDIAG  =      T    sub-space diagonalisation (order eigenvalues)
   LSUBROT=      F    optimize rotation matrix (better conditioning)
   TURBO    =      0    0=normal 1=particle mesh
   IRESTART =      0    0=no restart 2=restart with 2 vectors
   NREBOOT  =      0    no. of reboots
   NMIN     =      0    reboot dimension
   EREF     =   0.00    reference energy to select bands
   IMIX   =      4    mixing-type and parameters
     AMIX     =   0.40;   BMIX     =  1.00
     AMIX_MAG =   1.60;   BMIX_MAG =  1.00
     AMIN     =   0.10
     WC   =   100.;   INIMIX=   1;  MIXPRE=   1;  MAXMIX= -45

 Intra band minimization:
   WEIMIN = 0.0000     energy-eigenvalue tresh-hold
   EBREAK =  0.18E-09  absolut break condition
   DEPER  =   0.30     relativ break condition  

   TIME   =   0.40     timestep for ELM

  volume/ion in A,a.u.               =      62.05       418.76
  Fermi-wavevector in a.u.,A,eV,Ry     =   0.660508  1.248179  5.935820  0.436270
  Thomas-Fermi vector in A             =   1.732977
 
 Write flags
   LWAVE        =      F    write WAVECAR
   LDOWNSAMPLE  =      F    k-point downsampling of WAVECAR
   LCHARG       =      T    write CHGCAR
   LVTOT        =      F    write LOCPOT, total local potential
   LVHAR        =      F    write LOCPOT, Hartree potential only
   LELF         =      F    write electronic localiz. function (ELF)
   LORBIT       =      0    0 simple, 1 ext, 2 COOP (PROOUT), +10 PAW based schemes


 Dipole corrections
   LMONO  =      F    monopole corrections only (constant potential shift)
   LDIPOL =      F    correct potential (dipole corrections)
   IDIPOL =      0    1-x, 2-y, 3-z, 4-all directions 
   EPSILON=  1.0000000 bulk dielectric constant

 Exchange correlation treatment:
   GGA     =    ML    GGA type
   LEXCH   =    44    internal setting for exchange type
   VOSKOWN=      0    Vosko Wilk Nusair interpolation
   LHFCALC =     F    Hartree Fock is set to
   LHFONE  =     F    Hartree Fock one center treatment
   AEXX    =    0.0000 exact exchange contribution

 vdW DFT:
   LUSE_VDW   =     T    switch on vdW DFT
   Zab_VDW    =******    correlation parameter
   PARAM1     =0.1234
   PARAM2     =1.0000
   PARAM3     =0.0000
   -- rVV10 --
   BPARAM     = 6.3000
   CPARAM     = 0.0093

 Linear response parameters
   LEPSILON=     F    determine dielectric tensor
   LRPA    =     F    only Hartree local field effects (RPA)
   LNABLA  =     F    use nabla operator in PAW spheres
   LVEL    =     F    velocity operator in full k-point grid
   LINTERFAST=   F  fast interpolation
   KINTER  =     0    interpolate to denser k-point grid
   CSHIFT  =0.1000    complex shift for real part using Kramers Kronig
   OMEGAMAX=  -1.0    maximum frequency
   DEG_THRESHOLD= 0.2000000E-02 threshold for treating states as degnerate
   RTIME   =   -0.100 relaxation time in fs
  (WPLASMAI=    0.000 imaginary part of plasma frequency in eV, 0.658/RTIME)
   DFIELD  = 0.0000000 0.0000000 0.0000000 field for delta impulse in time
 
 Orbital magnetization related:
   ORBITALMAG=     F  switch on orbital magnetization
   LCHIMAG   =     F  perturbation theory with respect to B field
   DQ        =  0.001000  dq finite difference perturbation B field
   LLRAUG    =     F  two centre corrections for induced B field



--------------------------------------------------------------------------------------------------------


 Static calculation
 charge density and potential will be updated during run
 non-spin polarized calculation
 Conjugate gradient for all bands (Freysoldt, et al. PRB 79, 241103 (2009))
 preconditioned conjugated gradient                                        
 perform sub-space diagonalisation
    before iterative eigenvector-optimisation
 modified Broyden-mixing scheme, WC =      100.0
 initial mixing is a Kerker type mixing with AMIX =  0.4000 and BMIX =      1.0000
 Hartree-type preconditioning will be used
 using additional bands           28
 reciprocal scheme for non local part
 use partial core corrections
 no Harris-corrections to forces 
 use gradient corrections 
 use of overlap-Matrix (Vanderbilt PP)
 Gauss-broadening in eV      SIGMA  =   0.01


--------------------------------------------------------------------------------------------------------


  energy-cutoff  :     1000.00
  volume of cell :     3288.85
      direct lattice vectors                 reciprocal lattice vectors
    12.325000000  0.000000000  0.000000000     0.081135903  0.046843835  0.000000000
    -6.162500000 10.673763102  0.000000000     0.000000000  0.093687670  0.000000000
     0.000000000  0.000000000 25.000000000     0.000000000  0.000000000  0.040000000

  length of vectors
    12.325000000 12.325000000 25.000000000     0.093687670  0.093687670  0.040000000


 
 k-points in units of 2pi/SCALE and weight: auto                                    
   0.00000000  0.00000000  0.00000000       1.000
 
 k-points in reciprocal lattice and weights: auto                                    
   0.00000000  0.00000000  0.00000000       1.000
 
 position of ions in fractional coordinates (direct lattice) 
   0.97245084  0.00032082  0.00056671
   0.03911838  0.13365950  0.00044017
   0.17244363  0.00029545  0.00049963
   0.23909628  0.13364792  0.00025647
   0.97245206  0.20032201  0.00048522
   0.03912836  0.33364377  0.00044415
   0.17245176  0.20035455  0.00021917
   0.23912436  0.33366572  0.00007226
   0.37246557  0.00032440  0.00045391
   0.43913747  0.13361994  0.00025834
   0.97244982  0.40030936  0.00054761
   0.03912498  0.53363679  0.00057341
   0.37241618  0.40032948  0.00000000
   0.43909960  0.53363898  0.00023241
   0.57244368  0.00031213  0.00055958
   0.63911021  0.13363175  0.00054727
   0.97245270  0.60030565  0.00064029
   0.03912449  0.73364036  0.00065451
   0.57243347  0.60030624  0.00040289
   0.63911189  0.73364188  0.00052791
   0.17245463  0.40031823  0.00028904
   0.23912018  0.53363655  0.00037851
   0.37245975  0.20029599  0.00008900
   0.43910710  0.33367342  0.00005576
   0.17245216  0.60031151  0.00052434
   0.23912337  0.73363857  0.00057513
   0.57243108  0.20028917  0.00041330
   0.63911277  0.33361863  0.00046238
   0.37243981  0.60030802  0.00036284
   0.43911609  0.73363786  0.00049419
   0.57246936  0.40032050  0.00033992
   0.63911941  0.53365087  0.00045961
   0.77244572  0.00031543  0.00059616
   0.83911628  0.13364020  0.00057531
   0.77244051  0.20030743  0.00058103
   0.83912024  0.33363573  0.00058547
   0.77244632  0.40029837  0.00058298
   0.83911898  0.53363396  0.00062110
   0.77245614  0.60030817  0.00059571
   0.83911503  0.73364318  0.00063151
   0.97245531  0.80030558  0.00065223
   0.03911471  0.93364329  0.00059805
   0.17245797  0.80031221  0.00062337
   0.23913455  0.93364719  0.00054485
   0.37245140  0.80031667  0.00055140
   0.43912449  0.93364477  0.00054143
   0.57244110  0.80031005  0.00053453
   0.63911507  0.93363899  0.00058764
   0.77244510  0.80031319  0.00060206
   0.83911661  0.93364434  0.00060683
   0.37302101  0.25122688  0.14142136
   0.42087980  0.18931315  0.14399823
   0.32515698  0.31316719  0.13904316
 
 position of ions in cartesian coordinates  (Angst):
  11.98347958  0.00342433  0.01416777
  -0.34154264  1.42664989  0.01100432
   2.12354700  0.00315355  0.01249070
   2.12325634  1.42652621  0.00641170
  10.75098721  2.13818970  0.01213047
  -1.57382270  3.56123457  0.01110375
   0.89078307  2.13853702  0.00547917
   0.89099273  3.56146885  0.00180651
   4.58863896  0.00346260  0.01134782
   4.58893648  1.42622757  0.00645846
   9.51853763  4.27280730  0.01369027
  -2.80632132  5.69591267  0.01433526
   2.12299894  4.27302204  0.00000000
   2.12335237  5.69593607  0.00581036
   7.05344483  0.00333155  0.01398950
   7.05352764  1.42635365  0.01368187
   8.28609598  6.40752033  0.01600723
  -4.03884931  7.83070339  0.01636283
   3.35585531  6.40752662  0.01007237
   3.35598594  7.83071962  0.01319763
  -0.34145776  4.27290193  0.00722612
  -0.34137895  5.69591010  0.00946273
   3.35624236  2.13791198  0.00222492
   3.35573251  3.56155103  0.00139405
  -1.57394684  6.40758280  0.01310850
  -1.57385216  7.83068434  0.01437823
   5.82093107  2.13783916  0.01033241
   5.82114012  3.56096622  0.01155939
   0.89092245  6.40754561  0.00907111
   0.89106251  7.83067670  0.01235474
   4.58870974  4.27292622  0.00849795
   4.58852320  5.69606300  0.01149026
   9.51844972  0.00336679  0.01490402
   9.51855036  1.42644387  0.01438264
   8.28593477  2.13803408  0.01452582
   8.28612680  3.56114872  0.01463668
   7.05356221  4.27268994  0.01457444
   7.05362213  5.69588251  0.01552751
   5.82112285  6.40754723  0.01489279
   5.82101669  7.83073350  0.01578780
   7.05362858  8.54227219  0.01630582
  -5.27148792  9.96548729  0.01495127
  -2.80637951  8.54234295  0.01558431
  -2.80626749  9.96552896  0.01362126
  -0.34148805  8.54239058  0.01378498
  -0.34137657  9.96550309  0.01353576
   2.12342586  8.54231992  0.01336337
   2.12354296  9.96544135  0.01469111
   4.58845581  8.54235337  0.01505154
   4.58852904  9.96549848  0.01517076
   3.04929830  2.68153618  3.53553391
   4.02070129  2.02068374  3.59995577
   2.07766701  3.34267235  3.47607904
 


--------------------------------------------------------------------------------------------------------


 k-point   1 :   0.0000 0.0000 0.0000  plane waves:  236157

 maximum and minimum number of plane-waves per node :      8440     8428

 maximum number of plane-waves:    236157
 maximum index in each direction: 
   IXMAX=   31   IYMAX=   31   IZMAX=   64
   IXMIN=  -31   IYMIN=  -31   IZMIN=  -64


 parallel 3D FFT for wavefunctions:
    minimum data exchange during FFTs selected (reduces bandwidth)
 parallel 3D FFT for charge:
    minimum data exchange during FFTs selected (reduces bandwidth)


 total amount of memory used by VASP MPI-rank0   100580. kBytes
=======================================================================

   base      :      30000. kBytes
   nonl-proj :       8229. kBytes
   fftplans  :      18352. kBytes
   grid      :      30208. kBytes
   one-center:          6. kBytes
   wavefun   :      13785. kBytes
 
     INWAV:  cpu time    0.0000: real time    0.0000
 Broyden mixing: mesh for mixing (old mesh)
   NGX = 63   NGY = 63   NGZ =129
  (NGX  =256   NGY  =256   NGZ  =540)
  gives a total of 512001 points

 initial charge density was supplied:
 charge density of overlapping atoms calculated
 number of electron     216.0000000 magnetization 
 keeping initial charge density in first step


--------------------------------------------------------------------------------------------------------


 Maximum index for augmentation-charges          471 (set IRDMAX)


--------------------------------------------------------------------------------------------------------


 First call to EWALD:  gamma=   0.119
 Maximum number of real-space cells 4x 4x 2
 Maximum number of reciprocal cells 2x 2x 4

    FEWALD:  cpu time    0.0025: real time    0.0025


--------------------------------------- Iteration      1(   1)  ---------------------------------------


vdW kernel read from vdw_kernel.bindat
  0.0000  0.2424  0.5071  0.7962  1.1119  1.4567  1.8333  2.2446  2.6937  3.1842
  3.7199  4.3049  4.9438  5.6415  6.4036  7.2358  8.1446  9.1372 10.2212 11.4050
 12.6979 14.1099 15.6519 17.3360 19.1751 21.1837 23.3773 25.7729 28.3892 31.2465
 34.3669 37.7748 41.4965 45.5611 50.0000
 
    POTLOK:  cpu time    5.3978: real time    5.4465
    SETDIJ:  cpu time    0.0543: real time    0.0545
    TRIAL :  cpu time    2.1521: real time    2.1738
    CORREC:  cpu time    0.0007: real time    0.0006
    --------------------------------------------
      LOOP:  cpu time    7.6133: real time    7.6865

 eigenvalue-minimisations  :   296
 total energy-change (2. order) : 0.2802832E+04  (-0.1023467E+05)
 number of electron     216.0000000 magnetization 
 augmentation part      216.0000000 magnetization 

 Free energy of the ion-electron system (eV)
  ---------------------------------------------------
  alpha Z        PSCENC =        47.94900195
  Ewald energy   TEWEN  =     46916.29963516
  -Hartree energ DENC   =    -52985.23233003
  -exchange      EXHF   =         0.00000000
  -V(xc)+E(xc)   XCENC  =       352.76946241
  PAW double counting   =      6601.42964284    -6299.49404826
  entropy T*S    EENTRO =        -0.00000000
  eigenvalues    EBANDS =      -388.30242552
  atomic energy  EATOM  =      8557.41276814
  ---------------------------------------------------
  free energy    TOTEN  =      2802.83170669 eV

  energy without entropy =     2802.83170669  energy(sigma->0) =     2802.83170669


--------------------------------------------------------------------------------------------------------




--------------------------------------- Iteration      1(   2)  ---------------------------------------


    TRIAL :  cpu time    2.9589: real time    2.9856
    CORREC:  cpu time    0.0001: real time    0.0001
    --------------------------------------------
      LOOP:  cpu time    3.0653: real time    3.0931

 eigenvalue-minimisations  :   448
 total energy-change (2. order) :-0.2315192E+04  (-0.2165209E+04)
 number of electron     216.0000000 magnetization 
 augmentation part      216.0000000 magnetization 

 Free energy of the ion-electron system (eV)
  ---------------------------------------------------
  alpha Z        PSCENC =        47.94900195
  Ewald energy   TEWEN  =     46916.29963516
  -Hartree energ DENC   =    -52985.23233003
  -exchange      EXHF   =         0.00000000
  -V(xc)+E(xc)   XCENC  =       352.76946241
  PAW double counting   =      6601.42964284    -6299.49404826
  entropy T*S    EENTRO =        -0.00000000
  eigenvalues    EBANDS =     -2703.49472808
  atomic energy  EATOM  =      8557.41276814
  ---------------------------------------------------
  free energy    TOTEN  =       487.63940413 eV

  energy without entropy =      487.63940413  energy(sigma->0) =      487.63940413


--------------------------------------------------------------------------------------------------------




--------------------------------------- Iteration      1(   3)  ---------------------------------------


    TRIAL :  cpu time    2.3742: real time    2.3950
    CORREC:  cpu time    0.0001: real time    0.0001
    --------------------------------------------
      LOOP:  cpu time    2.4199: real time    2.4421

 eigenvalue-minimisations  :   344
 total energy-change (2. order) :-0.8368746E+03  (-0.8243581E+03)
 number of electron     216.0000000 magnetization 
 augmentation part      216.0000000 magnetization 

 Free energy of the ion-electron system (eV)
  ---------------------------------------------------
  alpha Z        PSCENC =        47.94900195
  Ewald energy   TEWEN  =     46916.29963516
  -Hartree energ DENC   =    -52985.23233003
  -exchange      EXHF   =         0.00000000
  -V(xc)+E(xc)   XCENC  =       352.76946241
  PAW double counting   =      6601.42964284    -6299.49404826
  entropy T*S    EENTRO =        -0.00000000
  eigenvalues    EBANDS =     -3540.36930786
  atomic energy  EATOM  =      8557.41276814
  ---------------------------------------------------
  free energy    TOTEN  =      -349.23517564 eV

  energy without entropy =     -349.23517564  energy(sigma->0) =     -349.23517564


--------------------------------------------------------------------------------------------------------




--------------------------------------- Iteration      1(   4)  ---------------------------------------


    TRIAL :  cpu time    2.3371: real time    2.3650
    CORREC:  cpu time    0.0001: real time    0.0001
    --------------------------------------------
      LOOP:  cpu time    2.3684: real time    2.3967

 eigenvalue-minimisations  :   336
 total energy-change (2. order) :-0.8059837E+02  (-0.7944889E+02)
 number of electron     216.0000000 magnetization 
 augmentation part      216.0000000 magnetization 

 Free energy of the ion-electron system (eV)
  ---------------------------------------------------
  alpha Z        PSCENC =        47.94900195
  Ewald energy   TEWEN  =     46916.29963516
  -Hartree energ DENC   =    -52985.23233003
  -exchange      EXHF   =         0.00000000
  -V(xc)+E(xc)   XCENC  =       352.76946241
  PAW double counting   =      6601.42964284    -6299.49404826
  entropy T*S    EENTRO =        -0.00000000
  eigenvalues    EBANDS =     -3620.96767987
  atomic energy  EATOM  =      8557.41276814
  ---------------------------------------------------
  free energy    TOTEN  =      -429.83354766 eV

  energy without entropy =     -429.83354766  energy(sigma->0) =     -429.83354766


--------------------------------------------------------------------------------------------------------




--------------------------------------- Iteration      1(   5)  ---------------------------------------


    TRIAL :  cpu time    2.4725: real time    2.5197
    CORREC:  cpu time    0.0001: real time    0.0001
    CHARGE:  cpu time    0.1790: real time    0.1830
    --------------------------------------------
      LOOP:  cpu time    2.6903: real time    2.7470

 eigenvalue-minimisations  :   368
 total energy-change (2. order) :-0.2509320E+01  (-0.2489269E+01)
 number of electron     216.0000000 magnetization 
 augmentation part       -0.1509870 magnetization 

 Free energy of the ion-electron system (eV)
  ---------------------------------------------------
  alpha Z        PSCENC =        47.94900195
  Ewald energy   TEWEN  =     46916.29963516
  -Hartree energ DENC   =    -52985.23233003
  -exchange      EXHF   =         0.00000000
  -V(xc)+E(xc)   XCENC  =       352.76946241
  PAW double counting   =      6601.42964284    -6299.49404826
  entropy T*S    EENTRO =        -0.00000000
  eigenvalues    EBANDS =     -3623.47699944
  atomic energy  EATOM  =      8557.41276814
  ---------------------------------------------------
  free energy    TOTEN  =      -432.34286723 eV

  energy without entropy =     -432.34286723  energy(sigma->0) =     -432.34286723


--------------------------------------------------------------------------------------------------------




--------------------------------------- Iteration      1(   6)  ---------------------------------------


    POTLOK:  cpu time    4.2725: real time    4.3032
    SETDIJ:  cpu time    0.0528: real time    0.0529
    TRIAL :  cpu time    1.1774: real time    1.1886
    CORREC:  cpu time    4.7486: real time    4.7840
    CHARGE:  cpu time    0.1809: real time    0.1826
    --------------------------------------------
      LOOP:  cpu time   10.4528: real time   10.5535

 eigenvalue-minimisations  :     0
 total energy-change (2. order) : 0.6331792E+02  (-0.2148867E+02)
 number of electron     216.0000000 magnetization 
 augmentation part       -0.2806666 magnetization 

 Free energy of the ion-electron system (eV)
  ---------------------------------------------------
  alpha Z        PSCENC =        47.94900195
  Ewald energy   TEWEN  =     46916.29963516
  -Hartree energ DENC   =    -54548.86166941
  -exchange      EXHF   =         0.00000000
  -V(xc)+E(xc)   XCENC  =       408.02791999
  PAW double counting   =     52741.53660817   -52463.64879882
  entropy T*S    EENTRO =        -0.00000000
  eigenvalues    EBANDS =     -2027.74041067
  atomic energy  EATOM  =      8557.41276814
  ---------------------------------------------------
  free energy    TOTEN  =      -369.02494548 eV

  energy without entropy =     -369.02494548  energy(sigma->0) =     -369.02494548


--------------------------------------------------------------------------------------------------------




--------------------------------------- Iteration      1(   7)  ---------------------------------------


    POTLOK:  cpu time    4.2522: real time    4.2815
    SETDIJ:  cpu time    0.0531: real time    0.0533
    TRIAL :  cpu time    1.1745: real time    1.1870
    CORREC:  cpu time    4.7863: real time    4.8225
    CHARGE:  cpu time    0.1914: real time    0.1934
    --------------------------------------------
      LOOP:  cpu time   10.5447: real time   10.6278

 eigenvalue-minimisations  :     0
 total energy-change (2. order) :-0.2158819E+02  (-0.2141951E+01)
 number of electron     216.0000000 magnetization 
 augmentation part       -0.3327456 magnetization 

 Free energy of the ion-electron system (eV)
  ---------------------------------------------------
  alpha Z        PSCENC =        47.94900195
  Ewald energy   TEWEN  =     46916.29963516
  -Hartree energ DENC   =    -53948.47314215
  -exchange      EXHF   =         0.00000000
  -V(xc)+E(xc)   XCENC  =       385.68761709
  PAW double counting   =     68619.30716023   -68334.40051440
  entropy T*S    EENTRO =        -0.00000000
  eigenvalues    EBANDS =     -2634.39566400
  atomic energy  EATOM  =      8557.41276814
  ---------------------------------------------------
  free energy    TOTEN  =      -390.61313798 eV

  energy without entropy =     -390.61313798  energy(sigma->0) =     -390.61313798


--------------------------------------------------------------------------------------------------------




--------------------------------------- Iteration      1(   8)  ---------------------------------------


    POTLOK:  cpu time    4.2718: real time    4.3205
    SETDIJ:  cpu time    0.0530: real time    0.0532
    TRIAL :  cpu time    1.1737: real time    1.1850
    CORREC:  cpu time    4.7471: real time    4.7832
    CHARGE:  cpu time    0.1830: real time    0.1850
    --------------------------------------------
      LOOP:  cpu time   10.4886: real time   10.5875

 eigenvalue-minimisations  :     0
 total energy-change (2. order) :-0.2140440E+01  (-0.6097175E+00)
 number of electron     216.0000000 magnetization 
 augmentation part       -0.3544848 magnetization 

 Free energy of the ion-electron system (eV)
  ---------------------------------------------------
  alpha Z        PSCENC =        47.94900195
  Ewald energy   TEWEN  =     46916.29963516
  -Hartree energ DENC   =    -53924.03389317
  -exchange      EXHF   =         0.00000000
  -V(xc)+E(xc)   XCENC  =       385.21104782
  PAW double counting   =     73968.14792711   -73682.12390668
  entropy T*S    EENTRO =        -0.00000000
  eigenvalues    EBANDS =     -2661.61615786
  atomic energy  EATOM  =      8557.41276814
  ---------------------------------------------------
  free energy    TOTEN  =      -392.75357750 eV

  energy without entropy =     -392.75357750  energy(sigma->0) =     -392.75357750


--------------------------------------------------------------------------------------------------------




--------------------------------------- Iteration      1(   9)  ---------------------------------------


    POTLOK:  cpu time    4.2711: real time    4.3010
    SETDIJ:  cpu time    0.0546: real time    0.0547
    TRIAL :  cpu time    1.1870: real time    1.1983
    CORREC:  cpu time    4.7503: real time    4.7857
    CHARGE:  cpu time    0.1818: real time    0.1836
    --------------------------------------------
      LOOP:  cpu time   10.4866: real time   10.5726

 eigenvalue-minimisations  :     0
 total energy-change (2. order) :-0.6096861E+00  (-0.2425296E+00)
 number of electron     216.0000000 magnetization 
 augmentation part       -0.3627402 magnetization 

 Free energy of the ion-electron system (eV)
  ---------------------------------------------------
  alpha Z        PSCENC =        47.94900195
  Ewald energy   TEWEN  =     46916.29963516
  -Hartree energ DENC   =    -53937.23662432
  -exchange      EXHF   =         0.00000000
  -V(xc)+E(xc)   XCENC  =       385.60593763
  PAW double counting   =     78351.30721443   -78064.81102626
  entropy T*S    EENTRO =        -0.00000000
  eigenvalues    EBANDS =     -2649.89017039
  atomic energy  EATOM  =      8557.41276814
  ---------------------------------------------------
  free energy    TOTEN  =      -393.36326364 eV

  energy without entropy =     -393.36326364  energy(sigma->0) =     -393.36326364


--------------------------------------------------------------------------------------------------------




--------------------------------------- Iteration      1(  10)  ---------------------------------------


    POTLOK:  cpu time    4.2567: real time    4.2864
    SETDIJ:  cpu time    0.0528: real time    0.0529
    TRIAL :  cpu time    1.1696: real time    1.1811
    CORREC:  cpu time    4.7781: real time    4.8158
    CHARGE:  cpu time    0.1818: real time    0.1837
    --------------------------------------------
      LOOP:  cpu time   10.5193: real time   10.6081

 eigenvalue-minimisations  :     0
 total energy-change (2. order) :-0.2417316E+00  (-0.1110208E+00)
 number of electron     216.0000000 magnetization 
 augmentation part       -0.3596655 magnetization 

 Free energy of the ion-electron system (eV)
  ---------------------------------------------------
  alpha Z        PSCENC =        47.94900195
  Ewald energy   TEWEN  =     46916.29963516
  -Hartree energ DENC   =    -53932.15519919
  -exchange      EXHF   =         0.00000000
  -V(xc)+E(xc)   XCENC  =       385.52805855
  PAW double counting   =     80194.84886367   -79908.05375515
  entropy T*S    EENTRO =        -0.00000000
  eigenvalues    EBANDS =     -2655.43436838
  atomic energy  EATOM  =      8557.41276814
  ---------------------------------------------------
  free energy    TOTEN  =      -393.60499525 eV

  energy without entropy =     -393.60499525  energy(sigma->0) =     -393.60499525


--------------------------------------------------------------------------------------------------------




--------------------------------------- Iteration      1(  11)  ---------------------------------------


    POTLOK:  cpu time    4.2503: real time    4.2965
    SETDIJ:  cpu time    0.0528: real time    0.0530
    TRIAL :  cpu time    1.1686: real time    1.1821
    CORREC:  cpu time    4.7538: real time    4.7973
    CHARGE:  cpu time    0.1808: real time    0.1830
    --------------------------------------------
      LOOP:  cpu time   10.4584: real time   10.5695

 eigenvalue-minimisations  :     0
 total energy-change (2. order) :-0.1104244E+00  (-0.4354642E-01)
 number of electron     216.0000000 magnetization 
 augmentation part       -0.3568664 magnetization 

 Free energy of the ion-electron system (eV)
  ---------------------------------------------------
  alpha Z        PSCENC =        47.94900195
  Ewald energy   TEWEN  =     46916.29963516
  -Hartree energ DENC   =    -53923.89781309
  -exchange      EXHF   =         0.00000000
  -V(xc)+E(xc)   XCENC  =       385.43565837
  PAW double counting   =     80233.62533306   -79946.77620108
  entropy T*S    EENTRO =        -0.00000000
  eigenvalues    EBANDS =     -2663.76380220
  atomic energy  EATOM  =      8557.41276814
  ---------------------------------------------------
  free energy    TOTEN  =      -393.71541968 eV

  energy without entropy =     -393.71541968  energy(sigma->0) =     -393.71541968


--------------------------------------------------------------------------------------------------------




--------------------------------------- Iteration      1(  12)  ---------------------------------------


    POTLOK:  cpu time    4.2684: real time    4.2977
    SETDIJ:  cpu time    0.0527: real time    0.0529
    TRIAL :  cpu time    1.1714: real time    1.1826
    CORREC:  cpu time    4.7369: real time    4.7722
    CHARGE:  cpu time    0.1813: real time    0.1833
    --------------------------------------------
      LOOP:  cpu time   10.4482: real time   10.5275

 eigenvalue-minimisations  :     0
 total energy-change (2. order) :-0.4338226E-01  (-0.1308467E-01)
 number of electron     216.0000000 magnetization 
 augmentation part       -0.3562336 magnetization 

 Free energy of the ion-electron system (eV)
  ---------------------------------------------------
  alpha Z        PSCENC =        47.94900195
  Ewald energy   TEWEN  =     46916.29963516
  -Hartree energ DENC   =    -53920.35505046
  -exchange      EXHF   =         0.00000000
  -V(xc)+E(xc)   XCENC  =       385.34443407
  PAW double counting   =     79686.23514354   -79399.45104684
  entropy T*S    EENTRO =        -0.00000000
  eigenvalues    EBANDS =     -2667.19368752
  atomic energy  EATOM  =      8557.41276814
  ---------------------------------------------------
  free energy    TOTEN  =      -393.75880194 eV

  energy without entropy =     -393.75880194  energy(sigma->0) =     -393.75880194


--------------------------------------------------------------------------------------------------------




--------------------------------------- Iteration      1(  13)  ---------------------------------------


    POTLOK:  cpu time    4.2618: real time    4.2935
    SETDIJ:  cpu time    0.0528: real time    0.0530
    TRIAL :  cpu time    1.1809: real time    1.1941
    CORREC:  cpu time    4.7564: real time    4.7926
    CHARGE:  cpu time    0.1810: real time    0.1829
    --------------------------------------------
      LOOP:  cpu time   10.5002: real time   10.5880

 eigenvalue-minimisations  :     0
 total energy-change (2. order) :-0.1307115E-01  (-0.3830269E-02)
 number of electron     216.0000000 magnetization 
 augmentation part       -0.3560156 magnetization 

 Free energy of the ion-electron system (eV)
  ---------------------------------------------------
  alpha Z        PSCENC =        47.94900195
  Ewald energy   TEWEN  =     46916.29963516
  -Hartree energ DENC   =    -53920.10253357
  -exchange      EXHF   =         0.00000000
  -V(xc)+E(xc)   XCENC  =       385.31006329
  PAW double counting   =     79251.42305906   -78964.69868694
  entropy T*S    EENTRO =        -0.00000000
  eigenvalues    EBANDS =     -2667.36518021
  atomic energy  EATOM  =      8557.41276814
  ---------------------------------------------------
  free energy    TOTEN  =      -393.77187310 eV

  energy without entropy =     -393.77187310  energy(sigma->0) =     -393.77187310


--------------------------------------------------------------------------------------------------------




--------------------------------------- Iteration      1(  14)  ---------------------------------------


    POTLOK:  cpu time    4.2705: real time    4.3068
    SETDIJ:  cpu time    0.0529: real time    0.0530
    TRIAL :  cpu time    1.1717: real time    1.1829
    CORREC:  cpu time    4.7431: real time    4.7779
    CHARGE:  cpu time    0.1819: real time    0.1837
    --------------------------------------------
      LOOP:  cpu time   10.4586: real time   10.5449

 eigenvalue-minimisations  :     0
 total energy-change (2. order) :-0.3828930E-02  (-0.1301433E-02)
 number of electron     216.0000000 magnetization 
 augmentation part       -0.3563544 magnetization 

 Free energy of the ion-electron system (eV)
  ---------------------------------------------------
  alpha Z        PSCENC =        47.94900195
  Ewald energy   TEWEN  =     46916.29963516
  -Hartree energ DENC   =    -53919.99995381
  -exchange      EXHF   =         0.00000000
  -V(xc)+E(xc)   XCENC  =       385.28648474
  PAW double counting   =     79079.69043224   -78792.99387681
  entropy T*S    EENTRO =        -0.00000000
  eigenvalues    EBANDS =     -2667.42019365
  atomic energy  EATOM  =      8557.41276814
  ---------------------------------------------------
  free energy    TOTEN  =      -393.77570203 eV

  energy without entropy =     -393.77570203  energy(sigma->0) =     -393.77570203


--------------------------------------------------------------------------------------------------------




--------------------------------------- Iteration      1(  15)  ---------------------------------------


    POTLOK:  cpu time    4.2684: real time    4.2984
    SETDIJ:  cpu time    0.0529: real time    0.0531
    TRIAL :  cpu time    1.1726: real time    1.1842
    CORREC:  cpu time    4.7425: real time    4.7784
    CHARGE:  cpu time    0.1802: real time    0.1823
    --------------------------------------------
      LOOP:  cpu time   10.4823: real time   10.5657

 eigenvalue-minimisations  :     0
 total energy-change (2. order) :-0.1300770E-02  (-0.6026084E-03)
 number of electron     216.0000000 magnetization 
 augmentation part       -0.3564409 magnetization 

 Free energy of the ion-electron system (eV)
  ---------------------------------------------------
  alpha Z        PSCENC =        47.94900195
  Ewald energy   TEWEN  =     46916.29963516
  -Hartree energ DENC   =    -53919.65004628
  -exchange      EXHF   =         0.00000000
  -V(xc)+E(xc)   XCENC  =       385.26104343
  PAW double counting   =     79017.58417007   -78730.89461529
  entropy T*S    EENTRO =        -0.00000000
  eigenvalues    EBANDS =     -2667.73895998
  atomic energy  EATOM  =      8557.41276814
  ---------------------------------------------------
  free energy    TOTEN  =      -393.77700280 eV

  energy without entropy =     -393.77700280  energy(sigma->0) =     -393.77700280


--------------------------------------------------------------------------------------------------------




--------------------------------------- Iteration      1(  16)  ---------------------------------------


    POTLOK:  cpu time    4.2520: real time    4.2832
    SETDIJ:  cpu time    0.0527: real time    0.0529
    TRIAL :  cpu time    1.1842: real time    1.1955
    CORREC:  cpu time    4.7453: real time    4.7820
    CHARGE:  cpu time    0.1816: real time    0.1834
    --------------------------------------------
      LOOP:  cpu time   10.5067: real time   10.5984

 eigenvalue-minimisations  :     0
 total energy-change (2. order) :-0.6015848E-03  (-0.3337575E-03)
 number of electron     216.0000000 magnetization 
 augmentation part       -0.3564863 magnetization 

 Free energy of the ion-electron system (eV)
  ---------------------------------------------------
  alpha Z        PSCENC =        47.94900195
  Ewald energy   TEWEN  =     46916.29963516
  -Hartree energ DENC   =    -53920.01443940
  -exchange      EXHF   =         0.00000000
  -V(xc)+E(xc)   XCENC  =       385.27477025
  PAW double counting   =     78956.68446971   -78670.00095694
  entropy T*S    EENTRO =        -0.00000000
  eigenvalues    EBANDS =     -2667.38285326
  atomic energy  EATOM  =      8557.41276814
  ---------------------------------------------------
  free energy    TOTEN  =      -393.77760438 eV

  energy without entropy =     -393.77760438  energy(sigma->0) =     -393.77760438


--------------------------------------------------------------------------------------------------------




--------------------------------------- Iteration      1(  17)  ---------------------------------------


    POTLOK:  cpu time    4.2696: real time    4.3077
    SETDIJ:  cpu time    0.0526: real time    0.0529
    TRIAL :  cpu time    1.1625: real time    1.1869
    CORREC:  cpu time    4.7307: real time    4.7665
    CHARGE:  cpu time    0.1808: real time    0.1826
    --------------------------------------------
      LOOP:  cpu time   10.4436: real time   10.5487

 eigenvalue-minimisations  :     0
 total energy-change (2. order) :-0.3332284E-03  (-0.1517993E-03)
 number of electron     216.0000000 magnetization 
 augmentation part       -0.3564735 magnetization 

 Free energy of the ion-electron system (eV)
  ---------------------------------------------------
  alpha Z        PSCENC =        47.94900195
  Ewald energy   TEWEN  =     46916.29963516
  -Hartree energ DENC   =    -53920.15094976
  -exchange      EXHF   =         0.00000000
  -V(xc)+E(xc)   XCENC  =       385.27888561
  PAW double counting   =     78904.89373629   -78618.20848550
  entropy T*S    EENTRO =        -0.00000000
  eigenvalues    EBANDS =     -2667.25252950
  atomic energy  EATOM  =      8557.41276814
  ---------------------------------------------------
  free energy    TOTEN  =      -393.77793761 eV

  energy without entropy =     -393.77793761  energy(sigma->0) =     -393.77793761


--------------------------------------------------------------------------------------------------------




--------------------------------------- Iteration      1(  18)  ---------------------------------------


    POTLOK:  cpu time    4.2578: real time    4.2873
    SETDIJ:  cpu time    0.0526: real time    0.0528
    TRIAL :  cpu time    1.1722: real time    1.1836
    CORREC:  cpu time    4.7372: real time    4.7727
    CHARGE:  cpu time    0.1819: real time    0.1838
    --------------------------------------------
      LOOP:  cpu time   10.4585: real time   10.5386

 eigenvalue-minimisations  :     0
 total energy-change (2. order) :-0.1518580E-03  (-0.5559778E-04)
 number of electron     216.0000000 magnetization 
 augmentation part       -0.3564934 magnetization 

 Free energy of the ion-electron system (eV)
  ---------------------------------------------------
  alpha Z        PSCENC =        47.94900195
  Ewald energy   TEWEN  =     46916.29963516
  -Hartree energ DENC   =    -53920.23601261
  -exchange      EXHF   =         0.00000000
  -V(xc)+E(xc)   XCENC  =       385.28170069
  PAW double counting   =     78895.35275829   -78608.66389476
  entropy T*S    EENTRO =        -0.00000000
  eigenvalues    EBANDS =     -2667.17404634
  atomic energy  EATOM  =      8557.41276814
  ---------------------------------------------------
  free energy    TOTEN  =      -393.77808947 eV

  energy without entropy =     -393.77808947  energy(sigma->0) =     -393.77808947


--------------------------------------------------------------------------------------------------------




--------------------------------------- Iteration      1(  19)  ---------------------------------------


    POTLOK:  cpu time    4.2503: real time    4.3121
    SETDIJ:  cpu time    0.0528: real time    0.0530
    TRIAL :  cpu time    1.1672: real time    1.1838
    CORREC:  cpu time    4.7364: real time    4.7904
    CHARGE:  cpu time    0.1820: real time    0.1838
    --------------------------------------------
      LOOP:  cpu time   10.4376: real time   10.6022

 eigenvalue-minimisations  :     0
 total energy-change (2. order) :-0.5569962E-04  (-0.2100677E-04)
 number of electron     216.0000000 magnetization 
 augmentation part       -0.3564907 magnetization 

 Free energy of the ion-electron system (eV)
  ---------------------------------------------------
  alpha Z        PSCENC =        47.94900195
  Ewald energy   TEWEN  =     46916.29963516
  -Hartree energ DENC   =    -53920.28300657
  -exchange      EXHF   =         0.00000000
  -V(xc)+E(xc)   XCENC  =       385.28293120
  PAW double counting   =     78912.13340468   -78625.44244028
  entropy T*S    EENTRO =        -0.00000000
  eigenvalues    EBANDS =     -2667.13043946
  atomic energy  EATOM  =      8557.41276814
  ---------------------------------------------------
  free energy    TOTEN  =      -393.77814517 eV

  energy without entropy =     -393.77814517  energy(sigma->0) =     -393.77814517


--------------------------------------------------------------------------------------------------------




--------------------------------------- Iteration      1(  20)  ---------------------------------------


    POTLOK:  cpu time    4.2707: real time    4.3016
    SETDIJ:  cpu time    0.0528: real time    0.0530
    TRIAL :  cpu time    1.1701: real time    1.1853
    CORREC:  cpu time    4.7478: real time    4.7833
    CHARGE:  cpu time    0.1824: real time    0.1842
    --------------------------------------------
      LOOP:  cpu time   10.4683: real time   10.5551

 eigenvalue-minimisations  :     0
 total energy-change (2. order) :-0.2106855E-04  (-0.9140644E-05)
 number of electron     216.0000000 magnetization 
 augmentation part       -0.3564699 magnetization 

 Free energy of the ion-electron system (eV)
  ---------------------------------------------------
  alpha Z        PSCENC =        47.94900195
  Ewald energy   TEWEN  =     46916.29963516
  -Hartree energ DENC   =    -53920.27270889
  -exchange      EXHF   =         0.00000000
  -V(xc)+E(xc)   XCENC  =       385.28301301
  PAW double counting   =     78931.15816331   -78644.46674787
  entropy T*S    EENTRO =        -0.00000000
  eigenvalues    EBANDS =     -2667.14129105
  atomic energy  EATOM  =      8557.41276814
  ---------------------------------------------------
  free energy    TOTEN  =      -393.77816624 eV

  energy without entropy =     -393.77816624  energy(sigma->0) =     -393.77816624


--------------------------------------------------------------------------------------------------------




--------------------------------------- Iteration      1(  21)  ---------------------------------------


    POTLOK:  cpu time    4.2636: real time    4.2940
    SETDIJ:  cpu time    0.0528: real time    0.0530
    TRIAL :  cpu time    1.1702: real time    1.1824
    CORREC:  cpu time    4.7557: real time    4.7903
    CHARGE:  cpu time    0.1813: real time    0.1834
    --------------------------------------------
      LOOP:  cpu time   10.4701: real time   10.5621

 eigenvalue-minimisations  :     0
 total energy-change (2. order) :-0.9116600E-05  (-0.4303936E-05)
 number of electron     216.0000000 magnetization 
 augmentation part       -0.3564502 magnetization 

 Free energy of the ion-electron system (eV)
  ---------------------------------------------------
  alpha Z        PSCENC =        47.94900195
  Ewald energy   TEWEN  =     46916.29963516
  -Hartree energ DENC   =    -53920.24704370
  -exchange      EXHF   =         0.00000000
  -V(xc)+E(xc)   XCENC  =       385.28248621
  PAW double counting   =     78941.91540427   -78655.22421243
  entropy T*S    EENTRO =        -0.00000000
  eigenvalues    EBANDS =     -2667.16621496
  atomic energy  EATOM  =      8557.41276814
  ---------------------------------------------------
  free energy    TOTEN  =      -393.77817536 eV

  energy without entropy =     -393.77817536  energy(sigma->0) =     -393.77817536


--------------------------------------------------------------------------------------------------------




--------------------------------------- Iteration      1(  22)  ---------------------------------------


    POTLOK:  cpu time    4.2740: real time    4.3029
    SETDIJ:  cpu time    0.0527: real time    0.0529
    TRIAL :  cpu time    1.1750: real time    1.1858
    CORREC:  cpu time    4.7480: real time    4.7847
    CHARGE:  cpu time    0.1815: real time    0.1833
    --------------------------------------------
      LOOP:  cpu time   10.4956: real time   10.5754

 eigenvalue-minimisations  :     0
 total energy-change (2. order) :-0.4265516E-05  (-0.1945500E-05)
 number of electron     216.0000000 magnetization 
 augmentation part       -0.3564412 magnetization 

 Free energy of the ion-electron system (eV)
  ---------------------------------------------------
  alpha Z        PSCENC =        47.94900195
  Ewald energy   TEWEN  =     46916.29963516
  -Hartree energ DENC   =    -53920.22706088
  -exchange      EXHF   =         0.00000000
  -V(xc)+E(xc)   XCENC  =       385.28195324
  PAW double counting   =     78944.78778446   -78658.09686931
  entropy T*S    EENTRO =        -0.00000000
  eigenvalues    EBANDS =     -2667.18539239
  atomic energy  EATOM  =      8557.41276814
  ---------------------------------------------------
  free energy    TOTEN  =      -393.77817962 eV

  energy without entropy =     -393.77817962  energy(sigma->0) =     -393.77817962


--------------------------------------------------------------------------------------------------------




--------------------------------------- Iteration      1(  23)  ---------------------------------------


    POTLOK:  cpu time    4.2579: real time    4.2884
    SETDIJ:  cpu time    0.0527: real time    0.0529
    TRIAL :  cpu time    1.1704: real time    1.1817
    CORREC:  cpu time    4.7251: real time    4.7672
    CHARGE:  cpu time    0.1807: real time    0.1831
    --------------------------------------------
      LOOP:  cpu time   10.4251: real time   10.5151

 eigenvalue-minimisations  :     0
 total energy-change (2. order) :-0.1938490E-05  (-0.8146001E-06)
 number of electron     216.0000000 magnetization 
 augmentation part       -0.3564455 magnetization 

 Free energy of the ion-electron system (eV)
  ---------------------------------------------------
  alpha Z        PSCENC =        47.94900195
  Ewald energy   TEWEN  =     46916.29963516
  -Hartree energ DENC   =    -53920.21469755
  -exchange      EXHF   =         0.00000000
  -V(xc)+E(xc)   XCENC  =       385.28172722
  PAW double counting   =     78943.86659924   -78657.17581215
  entropy T*S    EENTRO =        -0.00000000
  eigenvalues    EBANDS =     -2667.19740358
  atomic energy  EATOM  =      8557.41276814
  ---------------------------------------------------
  free energy    TOTEN  =      -393.77818156 eV

  energy without entropy =     -393.77818156  energy(sigma->0) =     -393.77818156


--------------------------------------------------------------------------------------------------------




--------------------------------------- Iteration      1(  24)  ---------------------------------------


    POTLOK:  cpu time    4.2649: real time    4.2975
    SETDIJ:  cpu time    0.0529: real time    0.0531
    TRIAL :  cpu time    1.1702: real time    1.1813
    CORREC:  cpu time    4.7511: real time    4.7851
    CHARGE:  cpu time    0.1818: real time    0.1836
    --------------------------------------------
      LOOP:  cpu time   10.4521: real time   10.5434

 eigenvalue-minimisations  :     0
 total energy-change (2. order) :-0.8122151E-06  (-0.3927795E-06)
 number of electron     216.0000000 magnetization 
 augmentation part       -0.3564544 magnetization 

 Free energy of the ion-electron system (eV)
  ---------------------------------------------------
  alpha Z        PSCENC =        47.94900195
  Ewald energy   TEWEN  =     46916.29963516
  -Hartree energ DENC   =    -53920.20769251
  -exchange      EXHF   =         0.00000000
  -V(xc)+E(xc)   XCENC  =       385.28161205
  PAW double counting   =     78942.24538752   -78655.55458122
  entropy T*S    EENTRO =        -0.00000000
  eigenvalues    EBANDS =     -2667.20431347
  atomic energy  EATOM  =      8557.41276814
  ---------------------------------------------------
  free energy    TOTEN  =      -393.77818237 eV

  energy without entropy =     -393.77818237  energy(sigma->0) =     -393.77818237


--------------------------------------------------------------------------------------------------------




--------------------------------------- Iteration      1(  25)  ---------------------------------------


    POTLOK:  cpu time    4.2542: real time    4.2844
    SETDIJ:  cpu time    0.0528: real time    0.0530
    TRIAL :  cpu time    1.1782: real time    1.1911
    CORREC:  cpu time    4.7385: real time    4.7761
    CHARGE:  cpu time    0.1806: real time    0.1824
    --------------------------------------------
      LOOP:  cpu time   10.4441: real time   10.5548

 eigenvalue-minimisations  :     0
 total energy-change (2. order) :-0.3803289E-06  (-0.2065453E-06)
 number of electron     216.0000000 magnetization 
 augmentation part       -0.3564610 magnetization 

 Free energy of the ion-electron system (eV)
  ---------------------------------------------------
  alpha Z        PSCENC =        47.94900195
  Ewald energy   TEWEN  =     46916.29963516
  -Hartree energ DENC   =    -53920.20893287
  -exchange      EXHF   =         0.00000000
  -V(xc)+E(xc)   XCENC  =       385.28164054
  PAW double counting   =     78940.89442320   -78654.20359086
  entropy T*S    EENTRO =        -0.00000000
  eigenvalues    EBANDS =     -2667.20312803
  atomic energy  EATOM  =      8557.41276814
  ---------------------------------------------------
  free energy    TOTEN  =      -393.77818275 eV

  energy without entropy =     -393.77818275  energy(sigma->0) =     -393.77818275


--------------------------------------------------------------------------------------------------------




--------------------------------------- Iteration      1(  26)  ---------------------------------------


    POTLOK:  cpu time    4.2471: real time    4.2775
    SETDIJ:  cpu time    0.0526: real time    0.0528
    TRIAL :  cpu time    1.1670: real time    1.1796
    CORREC:  cpu time    4.7407: real time    4.7775
    CHARGE:  cpu time    0.1807: real time    0.1828
    --------------------------------------------
      LOOP:  cpu time   10.4605: real time   10.5440

 eigenvalue-minimisations  :     0
 total energy-change (2. order) :-0.1798471E-06  (-0.9737812E-07)
 number of electron     216.0000000 magnetization 
 augmentation part       -0.3564640 magnetization 

 Free energy of the ion-electron system (eV)
  ---------------------------------------------------
  alpha Z        PSCENC =        47.94900195
  Ewald energy   TEWEN  =     46916.29963516
  -Hartree energ DENC   =    -53920.21276863
  -exchange      EXHF   =         0.00000000
  -V(xc)+E(xc)   XCENC  =       385.28172851
  PAW double counting   =     78940.02121194   -78653.33039858
  entropy T*S    EENTRO =        -0.00000000
  eigenvalues    EBANDS =     -2667.19936144
  atomic energy  EATOM  =      8557.41276814
  ---------------------------------------------------
  free energy    TOTEN  =      -393.77818293 eV

  energy without entropy =     -393.77818293  energy(sigma->0) =     -393.77818293


--------------------------------------------------------------------------------------------------------




--------------------------------------- Iteration      1(  27)  ---------------------------------------


    POTLOK:  cpu time    4.2849: real time    4.3152
    SETDIJ:  cpu time    0.0529: real time    0.0531
    TRIAL :  cpu time    1.1721: real time    1.1829
    CORREC:  cpu time    4.7347: real time    4.7754
    EDDIAG:  cpu time    0.4401: real time    0.4455
    CHARGE:  cpu time    0.1797: real time    0.1817
    --------------------------------------------
      LOOP:  cpu time   10.9032: real time   10.9956

 eigenvalue-minimisations  :     0
 total energy-change (2. order) :-0.8067582E-07  (-0.4246044E-07)
 number of electron     216.0000000 magnetization 
 augmentation part       -0.3564634 magnetization 

 Free energy of the ion-electron system (eV)
  ---------------------------------------------------
  alpha Z        PSCENC =        47.94900195
  Ewald energy   TEWEN  =     46916.29963516
  -Hartree energ DENC   =    -53920.21491368
  -exchange      EXHF   =         0.00000000
  -V(xc)+E(xc)   XCENC  =       385.28173089
  PAW double counting   =     78939.68840096   -78652.99761104
  entropy T*S    EENTRO =        -0.00000000
  eigenvalues    EBANDS =     -2667.19719539
  atomic energy  EATOM  =      8557.41276814
  ---------------------------------------------------
  free energy    TOTEN  =      -393.77818301 eV

  energy without entropy =     -393.77818301  energy(sigma->0) =     -393.77818301


--------------------------------------------------------------------------------------------------------


  average scaling for gradient   0.8366


 average (electrostatic) potential at core
  the test charge radii are     0.5770  0.5955
  (the norm of the test charge is              1.0000)
       1 -86.7885       2 -86.7847       3 -86.7938       4 -86.7997       5 -86.7813
       6 -86.7787       7 -86.7900       8 -86.7787       9 -86.7822      10 -86.7868
[...]
      16 -86.7791      17 -86.7835      18 -86.7855      19 -86.7879      20 -86.7835
      21 -86.7761      22 -86.7770      23 -86.7993      24 -86.7988      25 -86.7796
      26 -86.7816      27 -86.7829      28 -86.7912      29 -86.7785      30 -86.7796
      31 -86.7974      32 -86.7907      33 -86.7844      34 -86.7811      35 -86.7801
      36 -86.7823      37 -86.7845      38 -86.7869      39 -86.7871      40 -86.7856
      41 -86.7860      42 -86.7886      43 -86.7832      44 -86.7886      45 -86.7794
      46 -86.7789      47 -86.7830      48 -86.7807      49 -86.7860      50 -86.7841
      51 -91.0774      52-120.8457      53-120.8470
 
 
 
 E-fermi :  -4.3632     XC(G=0):  -2.2424     alpha+bet : -1.6890

 Fermi energy:        -4.3632477320

 k-point     1 :       0.0000    0.0000    0.0000
  band No.  band energies     occupation 
      1     -27.9092      2.00000
      2     -26.9599      2.00000
      3     -22.3951      2.00000
      4     -21.4746      2.00000
      5     -21.4711      2.00000
      6     -21.4660      2.00000
      7     -21.4658      2.00000
      8     -21.4633      2.00000
      9     -21.4626      2.00000
     10     -19.6548      2.00000
     11     -19.6542      2.00000
     12     -19.6512      2.00000
     13     -19.6510      2.00000
     14     -19.6498      2.00000
     15     -19.6497      2.00000
     16     -18.7731      2.00000
     17     -18.7725      2.00000
     18     -18.7720      2.00000
     19     -18.7704      2.00000
     20     -18.7701      2.00000
     21     -18.7699      2.00000
     22     -16.6781      2.00000
     23     -16.6775      2.00000
     24     -16.6760      2.00000
     25     -16.6756      2.00000
     26     -16.6725      2.00000
     27     -16.6723      2.00000
     28     -15.6330      2.00000
     29     -15.6326      2.00000
     30     -15.6303      2.00000
     31     -15.6301      2.00000
     32     -15.6297      2.00000
     33     -15.6295      2.00000
     34     -14.3194      2.00000
     35     -14.3193      2.00000
     36     -14.3191      2.00000
     37     -14.3182      2.00000
     38     -14.3181      2.00000
     39     -14.3172      2.00000
     40     -12.7964      2.00000
     41     -12.0228      2.00000
     42     -12.0227      2.00000
     43     -12.0214      2.00000
     44     -12.0212      2.00000
     45     -12.0211      2.00000
     46     -12.0209      2.00000
     47     -11.8559      2.00000
     48     -11.8556      2.00000
     49     -11.8540      2.00000
     50     -11.8537      2.00000
     51     -11.8515      2.00000
     52     -11.8512      2.00000
     53     -11.6866      2.00000
     54     -11.5387      2.00000
     55     -11.5155      2.00000
     56     -10.5662      2.00000
     57     -10.5027      2.00000
     58     -10.5025      2.00000
     59     -10.5024      2.00000
     60     -10.5023      2.00000
     61     -10.5011      2.00000
     62     -10.5010      2.00000
     63      -9.4678      2.00000
     64      -9.4633      2.00000
     65      -9.4608      2.00000
     66      -9.4590      2.00000
     67      -9.4564      2.00000
     68      -9.4554      2.00000
     69      -9.3233      2.00000
     70      -9.3206      2.00000
     71      -9.3201      2.00000
     72      -9.3189      2.00000
     73      -9.3184      2.00000
     74      -9.3175      2.00000
     75      -9.2656      2.00000
     76      -9.2654      2.00000
     77      -9.2652      2.00000
     78      -9.2635      2.00000
     79      -9.2627      2.00000
     80      -9.2621      2.00000
     81      -8.0372      2.00000
     82      -8.0246      2.00000
     83      -7.7113      2.00000
     84      -7.7110      2.00000
     85      -7.7109      2.00000
     86      -7.7100      2.00000
     87      -7.7069      2.00000
     88      -7.7069      2.00000
     89      -7.3505      2.00000
     90      -7.3501      2.00000
     91      -7.3426      2.00000
     92      -7.3412      2.00000
     93      -7.3407      2.00000
     94      -7.3282      2.00000
     95      -6.4615      2.00000
     96      -6.4589      2.00000
     97      -6.4566      2.00000
     98      -6.4521      2.00000
     99      -6.4516      2.00000
    100      -6.4471      2.00000
    101      -6.2872      2.00000
    102      -6.2849      2.00000
    103      -4.4955      2.00000
    104      -4.4934      2.00000
    105      -4.4906      2.00000
    106      -4.4894      2.00000
    107      -4.4845      2.00000
    108      -4.4841      2.00000
    109      -1.7102      0.00000
    110      -1.7095      0.00000
    111      -1.7031      0.00000
    112      -1.7022      0.00000
    113      -1.7003      0.00000
    114      -1.6995      0.00000
    115      -0.5757      0.00000
    116       0.1126      0.00000
    117       0.1336      0.00000
    118       0.1368      0.00000
    119       0.1389      0.00000
    120       0.1451      0.00000
    121       0.1459      0.00000
    122       0.1480      0.00000
    123       0.3819      0.00000
    124       0.4208      0.00000
    125       0.7379      0.00000
    126       0.8014      0.00000
    127       0.9057      0.00000
    128       0.9085      0.00000
    129       0.9187      0.00000
    130       0.9355      0.00000
    131       1.1498      0.00000
    132       1.4370      0.00000
    133       1.6209      0.00000
    134       1.7084      0.00000
    135       1.8019      0.00000
    136       1.8496      0.00000


--------------------------------------------------------------------------------------------------------


 soft charge-density along one line, spin component           1
         0         1         2         3         4         5         6         7         8         9
 total charge-density along one line
 
 pseudopotential strength for first ion, spin component:           1
 12.620  21.238  -0.000  -0.000   0.000  -0.000  -0.000   0.000
 21.238  35.743  -0.000  -0.000   0.000  -0.000  -0.000   0.000
 -0.000  -0.000  -3.327  -0.000   0.000  -5.962  -0.000   0.000
 -0.000  -0.000  -0.000  -3.362  -0.000  -0.000  -6.024  -0.000
  0.000   0.000   0.000  -0.000  -3.327   0.000  -0.000  -5.962
 -0.000  -0.000  -5.962  -0.000   0.000 -10.663  -0.000   0.000
 -0.000  -0.000  -0.000  -6.024  -0.000  -0.000 -10.773  -0.000
  0.000   0.000   0.000  -0.000  -5.962   0.000  -0.000 -10.663
 total augmentation occupancy for first ion, spin component:           1
  6.241  -2.004  -0.000  -0.002   0.000   0.000   0.001  -0.000
 -2.004   0.691   0.000   0.001  -0.000  -0.000  -0.000   0.000
 -0.000   0.000   5.992  -0.007   0.000  -1.878   0.003  -0.000
 -0.002   0.001  -0.007   2.310  -0.000   0.003  -0.483   0.000
  0.000  -0.000   0.000  -0.000   5.992  -0.000   0.000  -1.878
  0.000  -0.000  -1.878   0.003  -0.000   0.606  -0.001   0.000
  0.001  -0.000   0.003  -0.483   0.000  -0.001   0.111  -0.000
 -0.000   0.000  -0.000   0.000  -1.878   0.000  -0.000   0.606


------------------------ aborting loop because EDIFF is reached ----------------------------------------


    FORLOC:  cpu time    0.0696: real time    0.0702
    FORNL :  cpu time    0.8512: real time    0.8561
    FORCOR:  cpu time    4.3467: real time    4.3851
    OFIELD:  cpu time    0.0016: real time    0.0016

 VOLUME and BASIS-vectors are now :
 -----------------------------------------------------------------------------
  energy-cutoff  :     1000.00
  volume of cell :     3288.85
      direct lattice vectors                 reciprocal lattice vectors
    12.325000000  0.000000000  0.000000000     0.081135903  0.046843835  0.000000000
    -6.162500000 10.673763102  0.000000000     0.000000000  0.093687670  0.000000000
     0.000000000  0.000000000 25.000000000     0.000000000  0.000000000  0.040000000

  length of vectors
    12.325000000 12.325000000 25.000000000     0.093687670  0.093687670  0.040000000


 FORCES acting on ions:
    Electron-Ion                     Ewald-Force                    Non-Local-Force
 -----------------------------------------------------------------------------------------------
   0.936E+01 0.820E+01 0.257E+02   -.937E+01 -.819E+01 -.258E+02   0.138E-01 -.403E-02 0.111E-01
   0.150E+02 0.736E+01 0.325E+02   -.150E+02 -.735E+01 -.325E+02   0.189E-01 -.107E-01 -.614E-02
   0.716E+01 0.185E+02 0.390E+02   -.715E+01 -.185E+02 -.390E+02   -.213E-02 0.390E-01 0.285E-01
   0.108E+02 0.158E+02 0.582E+02   -.109E+02 -.159E+02 -.583E+02   0.411E-01 0.156E-01 0.620E-01
   0.101E+02 0.239E+01 0.259E+02   -.101E+02 -.238E+01 -.259E+02   0.491E-02 -.150E-01 -.391E-02
   0.106E+02 -.185E+01 0.263E+02   -.106E+02 0.186E+01 -.263E+02   -.152E-01 -.246E-02 -.137E-01
   0.191E+02 0.751E+01 0.511E+02   -.191E+02 -.747E+01 -.511E+02   0.466E-01 -.481E-01 0.355E-02
   0.186E+02 -.642E+01 0.537E+02   -.187E+02 0.645E+01 -.537E+02   0.131E-01 -.268E-01 -.513E-01
   -.807E+01 0.169E+02 0.396E+02   0.810E+01 -.169E+02 -.396E+02   -.188E-01 -.437E-02 -.238E-01
   -.141E+02 0.120E+02 0.563E+02   0.141E+02 -.120E+02 -.562E+02   -.650E-01 0.396E-01 -.215E-01
   0.252E+01 -.228E+01 0.214E+02   -.251E+01 0.227E+01 -.214E+02   -.353E-02 0.218E-02 -.558E-02
   0.204E+01 -.166E+01 0.201E+02   -.203E+01 0.166E+01 -.201E+02   -.144E-01 0.627E-02 0.183E-02
   0.731E+01 -.168E+02 0.603E+02   -.737E+01 0.169E+02 -.602E+02   0.734E-01 -.291E-01 -.293E-01
   0.354E+01 -.186E+02 0.398E+02   -.357E+01 0.186E+02 -.397E+02   0.231E-01 -.309E-04 -.296E-01
   -.905E+01 0.568E+01 0.253E+02   0.905E+01 -.567E+01 -.252E+02   0.123E-01 -.630E-02 -.525E-02
   -.132E+02 0.377E+01 0.289E+02   0.132E+02 -.377E+01 -.289E+02   -.389E-02 0.111E-01 -.215E-01
   -.140E+01 -.572E+00 0.194E+02   0.141E+01 0.568E+00 -.194E+02   -.643E-02 0.156E-02 0.837E-03
   0.751E+00 0.512E+01 0.205E+02   -.745E+00 -.512E+01 -.205E+02   -.832E-02 0.420E-02 0.895E-02
   -.269E+01 -.158E+02 0.313E+02   0.267E+01 0.158E+02 -.313E+02   0.229E-01 -.819E-02 0.656E-02
   -.120E+01 -.788E+01 0.225E+02   0.119E+01 0.789E+01 -.225E+02   0.617E-02 -.625E-02 -.204E-02
   0.154E+02 -.671E+01 0.348E+02   -.154E+02 0.671E+01 -.347E+02   -.252E-02 -.617E-02 -.421E-01
   0.935E+01 -.802E+01 0.280E+02   -.935E+01 0.801E+01 -.280E+02   -.107E-01 0.126E-01 -.163E-01
   -.360E+01 0.767E+01 0.715E+02   0.364E+01 -.770E+01 -.715E+02   -.441E-01 0.376E-01 0.775E-01
   -.582E+01 -.121E+02 0.684E+02   0.579E+01 0.122E+02 -.684E+02   0.322E-01 -.494E-01 0.661E-01
   0.444E+01 -.193E+01 0.216E+02   -.443E+01 0.192E+01 -.216E+02   -.712E-02 0.117E-02 -.997E-02
   0.853E+00 0.397E+01 0.217E+02   -.846E+00 -.397E+01 -.217E+02   -.124E-01 0.642E-02 -.541E-03
   -.193E+02 0.237E+01 0.432E+02   0.193E+02 -.240E+01 -.432E+02   -.551E-02 0.250E-01 -.223E-01
   -.179E+02 -.752E+01 0.396E+02   0.180E+02 0.750E+01 -.396E+02   -.342E-01 0.260E-01 0.131E-01
   0.567E+01 -.115E+02 0.292E+02   -.568E+01 0.115E+02 -.292E+02   0.120E-01 0.555E-02 -.202E-01
   0.526E+00 -.439E+01 0.229E+02   -.534E+00 0.438E+01 -.228E+02   0.843E-03 0.706E-02 -.938E-02
   -.143E+02 -.153E+02 0.479E+02   0.143E+02 0.153E+02 -.480E+02   -.367E-01 -.227E-01 0.408E-01
   -.844E+01 -.154E+02 0.332E+02   0.844E+01 0.154E+02 -.332E+02   0.133E-04 -.228E-01 0.193E-01
   0.534E+00 0.217E+01 0.200E+02   -.540E+00 -.216E+01 -.200E+02   0.115E-01 -.787E-02 0.396E-02
   0.149E+01 0.218E+01 0.214E+02   -.149E+01 -.217E+01 -.214E+02   0.500E-03 -.146E-02 -.617E-02
   -.634E+01 0.825E+00 0.232E+02   0.633E+01 -.831E+00 -.232E+02   0.802E-02 0.146E-02 -.170E-02
   -.548E+01 -.221E+01 0.226E+02   0.548E+01 0.220E+01 -.226E+02   -.110E-01 0.775E-02 -.213E-02
   -.111E+02 -.575E+01 0.263E+02   0.111E+02 0.575E+01 -.263E+02   -.148E-01 0.369E-02 0.191E-02
   -.649E+01 -.525E+01 0.223E+02   0.650E+01 0.525E+01 -.223E+02   -.109E-01 0.280E-02 0.103E-01
   -.607E+01 -.792E+01 0.237E+02   0.608E+01 0.792E+01 -.237E+02   -.107E-01 -.627E-02 0.791E-02
   -.899E+00 -.191E+01 0.205E+02   0.898E+00 0.191E+01 -.205E+02   0.279E-02 -.223E-02 0.842E-02
   0.228E+01 0.549E+01 0.213E+02   -.228E+01 -.550E+01 -.213E+02   -.462E-02 0.860E-02 0.814E-02
   0.747E+01 0.117E+02 0.272E+02   -.748E+01 -.117E+02 -.272E+02   0.989E-02 0.964E-02 0.154E-01
   0.606E+00 0.970E+01 0.235E+02   -.595E+00 -.971E+01 -.235E+02   -.810E-02 0.836E-02 -.960E-03
   0.199E-01 0.175E+02 0.339E+02   0.668E-02 -.176E+02 -.339E+02   -.294E-01 0.124E-01 0.992E-02
   -.184E+01 0.364E+01 0.228E+02   0.184E+01 -.363E+01 -.228E+02   0.116E-02 -.623E-02 -.655E-02
   -.763E+01 0.965E+01 0.278E+02   0.764E+01 -.965E+01 -.278E+02   -.112E-01 -.138E-03 -.165E-01
   -.136E+01 -.378E+01 0.212E+02   0.136E+01 0.378E+01 -.212E+02   0.137E-01 -.280E-02 0.140E-02
   -.349E+01 0.141E+01 0.204E+02   0.348E+01 -.140E+01 -.204E+02   0.588E-02 -.442E-04 -.862E-02
   0.289E+00 -.235E+01 0.202E+02   -.293E+00 0.235E+01 -.202E+02   0.810E-02 -.413E-02 0.595E-02
   0.371E+01 0.271E+01 0.204E+02   -.372E+01 -.271E+01 -.204E+02   0.661E-02 0.150E-02 0.314E-02
   0.101E+00 -.725E-01 -.394E+03   -.927E-01 0.677E-01 0.394E+03   -.773E-02 0.477E-02 -.242E-01
   -.229E+03 0.155E+03 -.603E+03   0.279E+03 -.190E+03 0.607E+03   -.512E+02 0.349E+02 -.343E+01
   0.229E+03 -.156E+03 -.581E+03   -.279E+03 0.190E+03 0.578E+03   0.512E+02 -.349E+02 0.310E+01
 -----------------------------------------------------------------------------------------------
   0.207E-01 -.293E-02 0.310E+00   0.114E-12 -.853E-13 0.114E-12   -.206E-01 0.274E-02 -.312E+00
 
 
 POSITION                                       TOTAL-FORCE (eV/Angst)
 -----------------------------------------------------------------------------------
     11.98348      0.00342      0.01417         0.002185     -0.000203     -0.000406
     -0.34154      1.42665      0.01100        -0.001868      0.000804     -0.000147
      2.12355      0.00315      0.01249         0.000231     -0.000868      0.001438
      2.12326      1.42653      0.00641         0.002288      0.001403      0.006680
     10.75099      2.13819      0.01213         0.000771     -0.004135      0.001717
     -1.57382      3.56123      0.01110        -0.005139      0.006076      0.000053
      0.89078      2.13854      0.00548         0.000845     -0.003676      0.005920
      0.89099      3.56147      0.00181        -0.008054      0.003207      0.007888
      4.58864      0.00346      0.01135         0.005863     -0.007287     -0.000038
      4.58894      1.42623      0.00646        -0.008110      0.005086      0.010421
      9.51854      4.27281      0.01369         0.007222     -0.005367      0.000496
     -2.80632      5.69591      0.01434        -0.007046      0.003817      0.001290
      2.12300      4.27302      0.00000         0.005364     -0.000145      0.012700
      2.12335      5.69594      0.00581        -0.003197      0.001555      0.000788
      7.05344      0.00333      0.01399         0.006342     -0.003089      0.001501
      7.05353      1.42635      0.01368        -0.003567      0.004314     -0.001010
      8.28610      6.40752      0.01601         0.003512     -0.001722     -0.000311
     -4.03885      7.83070      0.01636        -0.002048      0.001975      0.000319
      3.35586      6.40753      0.01007         0.001854      0.000309      0.000946
      3.35599      7.83072      0.01320        -0.003183      0.000666      0.000105
     -0.34146      4.27290      0.00723         0.004382     -0.003931     -0.000933
     -0.34138      5.69591      0.00946        -0.006915      0.003189      0.001548
      3.35624      2.13791      0.00222         0.000958      0.002352      0.022432
      3.35573      3.56155      0.00139         0.000682     -0.004224      0.016669
     -1.57395      6.40758      0.01311         0.008326     -0.004125     -0.000495
     -1.57385      7.83068      0.01438        -0.004642      0.004142      0.000680
      5.82093      2.13784      0.01033         0.009332     -0.001652      0.000027
      5.82114      3.56097      0.01156        -0.001622      0.001658      0.001637
      0.89092      6.40755      0.00907         0.004010      0.000111      0.000771
      0.89106      7.83068      0.01235        -0.007786      0.001126      0.000566
      4.58871      4.27293      0.00850        -0.001794     -0.003217      0.001675
      4.58852      5.69606      0.01149         0.001552      0.005322      0.000095
      9.51845      0.00337      0.01490         0.004939     -0.004957      0.000677
      9.51855      1.42644      0.01438        -0.004595      0.007478     -0.000120
      8.28593      2.13803      0.01453         0.003925     -0.004649      0.001318
      8.28613      3.56115      0.01464        -0.004517      0.001538      0.000699
      7.05356      4.27269      0.01457         0.004087     -0.000541      0.000958
      7.05362      5.69588      0.01553        -0.002455      0.000615      0.000206
      5.82112      6.40755      0.01489        -0.001189      0.001972      0.000299
      5.82102      7.83073      0.01579         0.001842      0.001118      0.000021
      7.05363      8.54227      0.01631        -0.003598     -0.000309      0.001411
     -5.27149      9.96549      0.01495        -0.001756     -0.003109     -0.000947
     -2.80638      8.54234      0.01558         0.003067     -0.001938     -0.000161
     -2.80627      9.96553      0.01362        -0.002183      0.000216      0.000072
     -0.34149      8.54239      0.01378         0.005831     -0.002277      0.000771
     -0.34138      9.96550      0.01354        -0.006100      0.002055      0.001166
      2.12343      8.54232      0.01336         0.005914     -0.001561      0.001236
      2.12354      9.96544      0.01469        -0.007286      0.004383     -0.001762
      4.58846      8.54235      0.01505         0.004079     -0.003426      0.001262
      4.58853      9.96550      0.01517        -0.003415      0.003184      0.000783
      3.04930      2.68154      3.53553         0.000457     -0.000134     -0.033405
      4.02070      2.02068      3.59996        -0.448610      0.306914     -0.063861
      2.07767      3.34267      3.47608         0.450816     -0.310042     -0.005646
 -----------------------------------------------------------------------------------
    total drift:                                0.000101     -0.000184     -0.001766


--------------------------------------------------------------------------------------------------------



  FREE ENERGIE OF THE ION-ELECTRON SYSTEM (eV)
  ---------------------------------------------------
  free  energy   TOTEN  =      -393.77818301 eV

  energy  without entropy=     -393.77818301  energy(sigma->0) =     -393.77818301
 


--------------------------------------------------------------------------------------------------------


    POTLOK:  cpu time    4.8400: real time    4.8778


--------------------------------------------------------------------------------------------------------


     LOOP+:  cpu time  286.4366: real time  289.1332
    4ORBIT:  cpu time    0.0000: real time    0.0000

 total amount of memory used by VASP MPI-rank0   100580. kBytes
=======================================================================

   base      :      30000. kBytes
   nonl-proj :       8229. kBytes
   fftplans  :      18352. kBytes
   grid      :      30208. kBytes
   one-center:          6. kBytes
   wavefun   :      13785. kBytes
 
  
  
 General timing and accounting informations for this job:
 ========================================================
  
                  Total CPU time used (sec):      329.208
                            User time (sec):      304.905
                          System time (sec):       24.303
                         Elapsed time (sec):      333.228
  
                   Maximum memory used (kb):      819020.
                   Average memory used (kb):          N/A
  
                          Minor page faults:       413815
                          Major page faults:           93
                 Voluntary context switches:         3674
