 vasp.6.2.1 16May21 (build Nov 06 2021 14:46:37) complex                        
  
 executed on             LinuxIFC date 2025.03.03  17:48:04
 running on  112 total cores
 distrk:  each k-point on  112 cores,    1 groups
 distr:  one band on NCORE=  28 cores,    4 groups


--------------------------------------------------------------------------------------------------------


 INCAR:
   NPAR = 4
   ALGO = Conjugate
   ISMEAR = 0
   SIGMA = 0.01
   PREC = Accurate
   EDIFF = 1E-7
   ENCUT = 1000
   ISIF = 0
   GGA = ML
   LUSE_VDW = .TRUE.
   ZAB_VDW = -1.8867
   AGGAC = 0.0000
   LASPH = .TRUE.
   SYMPREC = 1E-7
   LWAVE = .FALSE.
   LCHARGE = .FALSE.

 POTCAR:    PAW_PBE C_h 06Feb2004                 
 POTCAR:    PAW_PBE O_h 06Feb2004                 
 -----------------------------------------------------------------------------
|                                                                             |
|           W    W    AA    RRRRR   N    N  II  N    N   GGGG   !!!           |
|           W    W   A  A   R    R  NN   N  II  NN   N  G    G  !!!           |
|           W    W  A    A  R    R  N N  N  II  N N  N  G       !!!           |
|           W WW W  AAAAAA  RRRRR   N  N N  II  N  N N  G  GGG   !            |
|           WW  WW  A    A  R   R   N   NN  II  N   NN  G    G                |
|           W    W  A    A  R    R  N    N  II  N    N   GGGG   !!!           |
|                                                                             |
|     For optimal performance we recommend to set                             |
|       NCORE = 2 up to number-of-cores-per-socket                            |
|     NCORE specifies how many cores store one orbital (NPAR=cpu/NCORE).      |
|     This setting can greatly improve the performance of VASP for DFT.       |
|     The default, NCORE=1 might be grossly inefficient on modern             |
|     multi-core architectures or massively parallel machines. Do your        |
|     own testing! More info at https://www.vasp.at/wiki/index.php/NCORE      |
|     Unfortunately you need to use the default for GW and RPA                |
|     calculations (for HF NCORE is supported but not extensively tested      |
|     yet).                                                                   |
|                                                                             |
 -----------------------------------------------------------------------------

 -----------------------------------------------------------------------------
|                                                                             |
|               ----> ADVICE to this user running VASP <----                  |
|                                                                             |
|     You have switched on vdW-DFT.                                           |
|     This routine was written and supplied by Jiri Klimes. We recommend      |
|     that you carefully read and cite the following publications:            |
|       J. Klimes, D.R. Bowler, A. Michelides                                 |
|          J. Phys.: Cond Matt. 22 022201 (2010)                              |
|       J. Klimes, D.R. Bowler, A. Michelides                                 |
|          Phys. Rev. B. 83, 195131 (2011)                                    |
|     and references therein.                                                 |
|                                                                             |
 -----------------------------------------------------------------------------

 POTCAR:    PAW_PBE C_h 06Feb2004                 
   VRHFIN =C: s2p2                                                                                  
   LEXCH  = PE                                                                                      
   EATOM  =   147.1560 eV,   10.8157 Ry                                                             
                                                                                                    
   TITEL  = PAW_PBE C_h 06Feb2004                                                                   
   LULTRA =        F    use ultrasoft PP ?                                                          
   IUNSCR =        1    unscreen: 0-lin 1-nonlin 2-no                                               
   RPACOR =    0.800    partial core radius                                                         
   POMASS =   12.011; ZVAL   =    4.000    mass and valenz                                          
   RCORE  =    1.100    outmost cutoff radius                                                       
   RWIGS  =    1.630; RWIGS  =    0.863    wigner-seitz radius (au A)                               
   ENMAX  =  700.000; ENMIN  =  500.000 eV                                                          
   ICORE  =        2    local potential                                                             
   LCOR   =        T    correct aug charges                                                         
   LPAW   =        T    paw PP                                                                      
   EAUG   =  946.768                                                                                
   DEXC   =    0.000                                                                                
   RMAX   =    1.128    core radius for proj-oper                                                   
   RAUG   =    1.300    factor for augmentation sphere                                              
   RDEP   =    1.162    radius for radial grids                                                     
   RDEPT  =    1.088    core radius for aug-charge                                                  
                                                                                                    
   Atomic configuration                                                                             
    4 entries                                                                                       
     n  l   j            E        occ.                                                              
     1  0  0.50      -273.3789   2.0000                                                             
     2  0  0.50       -13.7508   2.0000                                                             
     2  1  0.50        -5.2854   2.0000                                                             
     3  2  1.50        -5.4423   0.0000                                                             
   Description                                                                                      
     l       E           TYP  RCUT    TYP  RCUT                                                     
     0    -13.7508458     23  1.100                                                                 
     0     -8.2022199     23  1.100                                                                 
     1     -5.2854383     23  1.100                                                                 
     1      1.1560700     23  1.100                                                                 
     2     -5.4423304      7  1.100                                                                 
  local pseudopotential read in
  partial core-charges read in
  partial kinetic energy density read in
  atomic valenz-charges read in
  non local Contribution for L=           0  read in
    real space projection operators read in
  non local Contribution for L=           0  read in
    real space projection operators read in
  non local Contribution for L=           1  read in
    real space projection operators read in
  non local Contribution for L=           1  read in
    real space projection operators read in
    PAW grid and wavefunctions read in
 
   number of l-projection  operators is LMAX  =           4
   number of lm-projection operators is LMMAX =           8
 
 POTCAR:    PAW_PBE O_h 06Feb2004                 
   VRHFIN =O: s2p4                                                                                  
   LEXCH  = PE                                                                                      
   EATOM  =   432.3788 eV,   31.7789 Ry                                                             
                                                                                                    
   TITEL  = PAW_PBE O_h 06Feb2004                                                                   
   LULTRA =        F    use ultrasoft PP ?                                                          
   IUNSCR =        1    unscreen: 0-lin 1-nonlin 2-no                                               
   RPACOR =    0.800    partial core radius                                                         
   POMASS =   16.000; ZVAL   =    6.000    mass and valenz                                          
   RCORE  =    1.100    outmost cutoff radius                                                       
   RWIGS  =    1.400; RWIGS  =    0.741    wigner-seitz radius (au A)                               
   ENMAX  =  700.000; ENMIN  =  500.000 eV                                                          
   ICORE  =        2    local potential                                                             
   LCOR   =        T    correct aug charges                                                         
   LPAW   =        T    paw PP                                                                      
   EAUG   =  888.804                                                                                
   DEXC   =    0.000                                                                                
   RMAX   =    1.128    core radius for proj-oper                                                   
   RAUG   =    1.300    factor for augmentation sphere                                              
   RDEP   =    1.125    radius for radial grids                                                     
   RDEPT  =    1.088    core radius for aug-charge                                                  
                                                                                                    
   Atomic configuration                                                                             
    4 entries                                                                                       
     n  l   j            E        occ.                                                              
     1  0  0.50      -514.6923   2.0000                                                             
     2  0  0.50       -23.9615   2.0000                                                             
     2  1  0.50        -9.0305   4.0000                                                             
     3  2  1.50        -9.5241   0.0000                                                             
   Description                                                                                      
     l       E           TYP  RCUT    TYP  RCUT                                                     
     0    -23.9615319     23  1.100                                                                 
     0    -25.3221145     23  1.100                                                                 
     1     -9.0304911     23  1.100                                                                 
     1     -5.4802209     23  1.100                                                                 
     2     -9.5240782      7  1.100                                                                 
  local pseudopotential read in
  partial core-charges read in
  partial kinetic energy density read in
  atomic valenz-charges read in
  non local Contribution for L=           0  read in
    real space projection operators read in
  non local Contribution for L=           0  read in
    real space projection operators read in
  non local Contribution for L=           1  read in
    real space projection operators read in
  non local Contribution for L=           1  read in
    real space projection operators read in
    PAW grid and wavefunctions read in
 
   number of l-projection  operators is LMAX  =           4
   number of lm-projection operators is LMMAX =           8
 
 -----------------------------------------------------------------------------
|                                                                             |
|               ----> ADVICE to this user running VASP <----                  |
|                                                                             |
|     You have a (more or less) 'large supercell' and for larger cells it     |
|     might be more efficient to use real-space projection operators.         |
|     Therefore, try LREAL= Auto in the INCAR file.                           |
|     Mind: For very accurate calculation, you might also keep the            |
|     reciprocal projection scheme (i.e. LREAL=.FALSE.).                      |
|                                                                             |
 -----------------------------------------------------------------------------

 -----------------------------------------------------------------------------
|                                                                             |
|               ----> ADVICE to this user running VASP <----                  |
|                                                                             |
|     You enforced a specific xc type in the INCAR file but a different       |
|     type was found in the POTCAR file.                                      |
|     I HOPE YOU KNOW WHAT YOU ARE DOING!                                     |
|                                                                             |
 -----------------------------------------------------------------------------

  PAW_PBE C_h 06Feb2004                 :
 energy of atom  1       EATOM= -147.1560
 kinetic energy error for atom=    0.0031 (will be added to EATOM!!)
  PAW_PBE O_h 06Feb2004                 :
 energy of atom  2       EATOM= -432.3788
 kinetic energy error for atom=    0.0171 (will be added to EATOM!!)
 
 
 POSCAR:  C  O
  positions in cartesian coordinates
  No initial velocities read in
 exchange correlation table for  LEXCH =       44
   RHO(1)=    0.500       N(1)  =     2000
   RHO(2)=  100.500       N(2)  =     4000
 


--------------------------------------------------------------------------------------------------------


 ion  position               nearest neighbor table
   1  0.972  0.000  0.001-  50 1.42   2 1.42  42 1.42
   2  0.039  0.134  0.001-   5 1.42   7 1.42   1 1.42
   3  0.172  0.000  0.001-  42 1.42  44 1.42   4 1.42
   4  0.239  0.134  0.000-   7 1.42   3 1.42  23 1.42
   5  0.972  0.200  0.001-   6 1.42   2 1.42  34 1.42
   6  0.039  0.334  0.001-   5 1.42  21 1.42  11 1.42
   7  0.172  0.200  0.000-   8 1.42   2 1.42   4 1.42
   8  0.239  0.334  0.000-  13 1.42   7 1.42  21 1.42
   9  0.372  0.000  0.001-  10 1.42  44 1.42  46 1.42
  10  0.439  0.134  0.000-  27 1.42   9 1.42  23 1.42
  11  0.972  0.400  0.001-  12 1.42  36 1.42   6 1.42
  12  0.039  0.534  0.001-  25 1.42  11 1.42  17 1.42
  13  0.372  0.400  0.000-   8 1.42  14 1.42  24 1.42
  14  0.439  0.534  0.000-  13 1.42  29 1.42  19 1.42
  15  0.572  0.000  0.001-  46 1.42  16 1.42  48 1.42
  16  0.639  0.134  0.001-  15 1.42  35 1.42  27 1.42
  17  0.972  0.600  0.001-  38 1.42  18 1.42  12 1.42
  18  0.039  0.734  0.001-  43 1.42  41 1.42  17 1.42
  19  0.572  0.600  0.001-  14 1.42  20 1.42  32 1.42
  20  0.639  0.734  0.001-  49 1.42  19 1.42  47 1.42
  21  0.172  0.400  0.000-  22 1.42   8 1.42   6 1.42
  22  0.239  0.534  0.000-  21 1.42  29 1.42  25 1.42
  23  0.372  0.200  0.000-  10 1.42   4 1.42  24 1.42
  24  0.439  0.334  0.000-  13 1.42  31 1.42  23 1.42
  25  0.172  0.600  0.001-  26 1.42  12 1.42  22 1.42
  26  0.239  0.734  0.001-  25 1.42  45 1.42  43 1.42
  27  0.572  0.200  0.001-  10 1.42  28 1.42  16 1.42
  28  0.639  0.334  0.001-  27 1.42  37 1.42  31 1.42
  29  0.372  0.600  0.000-  22 1.42  14 1.42  30 1.42
  30  0.439  0.734  0.001-  47 1.42  29 1.42  45 1.42
  31  0.572  0.400  0.000-  32 1.42  28 1.42  24 1.42
  32  0.639  0.534  0.001-  31 1.42  39 1.42  19 1.42
  33  0.772  0.000  0.001-  34 1.42  48 1.42  50 1.42
  34  0.839  0.134  0.001-  33 1.42   5 1.42  35 1.42
  35  0.772  0.200  0.001-  36 1.42  16 1.42  34 1.42
  36  0.839  0.334  0.001-  35 1.42  11 1.42  37 1.42
  37  0.772  0.400  0.001-  28 1.42  38 1.42  36 1.42
  38  0.839  0.534  0.001-  17 1.42  37 1.42  39 1.42
  39  0.772  0.600  0.001-  40 1.42  38 1.42  32 1.42
  40  0.839  0.734  0.001-  39 1.42  49 1.42  41 1.42
  41  0.972  0.800  0.001-  18 1.42  42 1.42  40 1.42
  42  0.039  0.934  0.001-   3 1.42  41 1.42   1 1.42
  43  0.172  0.800  0.001-  18 1.42  44 1.42  26 1.42
  44  0.239  0.934  0.001-   9 1.42  43 1.42   3 1.42
  45  0.372  0.800  0.001-  26 1.42  46 1.42  30 1.42
  46  0.439  0.934  0.001-  15 1.42  45 1.42   9 1.42
  47  0.572  0.800  0.001-  30 1.42  48 1.42  20 1.42
  48  0.639  0.934  0.001-  47 1.42  33 1.42  15 1.42
  49  0.772  0.800  0.001-  50 1.42  20 1.42  40 1.42
  50  0.839  0.934  0.001-  49 1.42   1 1.42  33 1.42
  51  0.373  0.251  0.125-  52 1.18  53 1.18
  52  0.421  0.189  0.128-  51 1.18
  53  0.325  0.313  0.122-  51 1.18
 
  LATTYP: Found a hexagonal cell.
 ALAT       =    12.3250000000
 C/A-ratio  =     1.6227180527
  
  Lattice vectors:
  
 A1 = (  12.3250000000,   0.0000000000,   0.0000000000)
 A2 = (  -6.1625000000,  10.6737631016,   0.0000000000)
 A3 = (   0.0000000000,   0.0000000000,  20.0000000000)


Analysis of symmetry for initial positions (statically):
=====================================================================
 Subroutine PRICEL returns:
 Original cell was already a primitive cell.
 

 Routine SETGRP: Setting up the symmetry group for a 
 hexagonal supercell.


 Subroutine GETGRP returns: Found  1 space group operations
 (whereof  1 operations were pure point group operations)
 out of a pool of 24 trial point group operations.


The static configuration has the point symmetry C_1 .


Analysis of symmetry for dynamics (positions and initial velocities):
=====================================================================
 Subroutine PRICEL returns:
 Original cell was already a primitive cell.
 

 Routine SETGRP: Setting up the symmetry group for a 
 hexagonal supercell.


 Subroutine GETGRP returns: Found  1 space group operations
 (whereof  1 operations were pure point group operations)
 out of a pool of 24 trial point group operations.


The dynamic configuration has the point symmetry C_1 .


 Subroutine INISYM returns: Found  1 space group operations
 (whereof  1 operations are pure point group operations),
 and found     1 'primitive' translations


----------------------------------------------------------------------------------------

                                     Primitive cell                                     

  volume of cell :    2631.0826

  direct lattice vectors                    reciprocal lattice vectors
    12.325000000  0.000000000  0.000000000     0.081135903  0.046843835  0.000000000
    -6.162500000 10.673763102  0.000000000     0.000000000  0.093687670  0.000000000
     0.000000000  0.000000000 20.000000000     0.000000000  0.000000000  0.050000000

  length of vectors
    12.325000000 12.325000000 20.000000000     0.093687670  0.093687670  0.050000000

  position of ions in fractional coordinates (direct lattice)
     0.972450841  0.000320818  0.000708389
     0.039118382  0.133659505  0.000550216
     0.172443627  0.000295449  0.000624535
     0.239096278  0.133647917  0.000320585
     0.972452058  0.200322012  0.000606523
     0.039128360  0.333643771  0.000555187
     0.172451764  0.200354552  0.000273959
     0.239124359  0.333665720  0.000090325
     0.372465565  0.000324403  0.000567391
     0.439137473  0.133619939  0.000322923
     0.972449824  0.400309362  0.000684513
     0.039124981  0.533636789  0.000716763
     0.372416176  0.400329481  0.000000000
     0.439099602  0.533638981  0.000290518
     0.572443676  0.000312125  0.000699475
     0.639110207  0.133631751  0.000684093
     0.972452703  0.600305653  0.000800361
     0.039124495  0.733640359  0.000818141
     0.572433471  0.600306242  0.000503618
     0.639111888  0.733641879  0.000659881
     0.172454630  0.400318228  0.000361306
     0.239120185  0.533636548  0.000473136
     0.372459750  0.200295993  0.000111246
     0.439107096  0.333673419  0.000069702
     0.172452155  0.600311506  0.000655425
     0.239123371  0.733638574  0.000718912
     0.572431082  0.200289171  0.000516621
     0.639112773  0.333618630  0.000577970
     0.372439808  0.600308022  0.000453556
     0.439116090  0.733637858  0.000617737
     0.572469358  0.400320504  0.000424897
     0.639119408  0.533650873  0.000574513
     0.772445723  0.000315427  0.000745201
     0.839116277  0.133640203  0.000719132
     0.772440513  0.200307432  0.000726291
     0.839120241  0.333635728  0.000731834
     0.772446320  0.400298367  0.000728722
     0.839118980  0.533633964  0.000776376
     0.772456143  0.600308173  0.000744639
     0.839115033  0.733643180  0.000789390
     0.972455313  0.800305582  0.000815291
     0.039114714  0.933643289  0.000747563
     0.172457971  0.800312211  0.000779216
     0.239134551  0.933647193  0.000681063
     0.372451396  0.800316674  0.000689249
     0.439124489  0.933644769  0.000676788
     0.572441101  0.800310054  0.000668168
     0.639115067  0.933638985  0.000734556
     0.772445098  0.800313187  0.000752577
     0.839116614  0.933644338  0.000758538
     0.373021009  0.251226878  0.125000000
     0.420879805  0.189313152  0.128221093
     0.325156981  0.313167186  0.122027256

  ion indices of the primitive-cell ions
   primitive index   ion index
                 1           1
                 2           2
                 3           3
                 4           4
                 5           5
                 6           6
                 7           7
                 8           8
                 9           9
                10          10
                11          11
                12          12
                13          13
                14          14
                15          15
                16          16
                17          17
                18          18
                19          19
                20          20
                21          21
                22          22
                23          23
                24          24
                25          25
                26          26
                27          27
                28          28
                29          29
                30          30
                31          31
                32          32
                33          33
                34          34
                35          35
                36          36
                37          37
                38          38
                39          39
                40          40
                41          41
                42          42
                43          43
                44          44
                45          45
                46          46
                47          47
                48          48
                49          49
                50          50
                51          51
                52          52
                53          53

----------------------------------------------------------------------------------------

 
 
 KPOINTS: auto                                    

Automatic generation of k-mesh.
 Grid dimensions read from file:
 generate k-points for:    1    1    1

 Generating k-lattice:

  Cartesian coordinates                     Fractional coordinates (reciprocal lattice)
     0.081135903  0.046843835  0.000000000     1.000000000 -0.000000000  0.000000000
     0.000000000  0.093687670  0.000000000     0.000000000  1.000000000  0.000000000
     0.000000000  0.000000000  0.050000000     0.000000000  0.000000000  1.000000000

  Length of vectors
     0.093687670  0.093687670  0.050000000

  Shift w.r.t. Gamma in fractional coordinates (k-lattice)
     0.000000000  0.000000000  0.000000000

 
 Subroutine IBZKPT returns following result:
 ===========================================
 
 Found      1 irreducible k-points:
 
 Following reciprocal coordinates:
            Coordinates               Weight
  0.000000  0.000000  0.000000      1.000000
 
 Following cartesian coordinates:
            Coordinates               Weight
  0.000000  0.000000  0.000000      1.000000
 


--------------------------------------------------------------------------------------------------------




 Dimension of arrays:
   k-points           NKPTS =      1   k-points in BZ     NKDIM =      1   number of bands    NBANDS=    136
   number of dos      NEDOS =    301   number of ions     NIONS =     53
   non local maximal  LDIM  =      4   non local SUM 2l+1 LMDIM =      8
   total plane-waves  NPLWV = ******
   max r-space proj   IRMAX =      1   max aug-charges    IRDMAX=   9736
   dimension x,y,z NGX =   128 NGY =  128 NGZ =  210
   dimension x,y,z NGXF=   256 NGYF=  256 NGZF=  420
   support grid    NGXF=   256 NGYF=  256 NGZF=  420
   ions per type =              51   2
   NGX,Y,Z   is equivalent  to a cutoff of  17.27, 17.27, 17.46 a.u.
   NGXF,Y,Z  is equivalent  to a cutoff of  34.53, 34.53, 34.91 a.u.

 SYSTEM =  unknown system                          
 POSCAR =   C  O                                   

 Startparameter for this run:
   NWRITE =      2    write-flag & timer
   PREC   = accura    normal or accurate (medium, high low for compatibility)
   ISTART =      0    job   : 0-new  1-cont  2-samecut
   ICHARG =      2    charge: 1-file 2-atom 10-const
   ISPIN  =      1    spin polarized calculation?
   LNONCOLLINEAR =      F non collinear calculations
   LSORBIT =      F    spin-orbit coupling
   INIWAV =      1    electr: 0-lowe 1-rand  2-diag
   LASPH  =      T    aspherical Exc in radial PAW
 Electronic Relaxation 1
   ENCUT  = 1000.0 eV  73.50 Ry    8.57 a.u.  31.78 31.78 51.57*2*pi/ulx,y,z
   ENINI  = 1000.0     initial cutoff
   ENAUG  =  946.8 eV  augmentation charge cutoff
   NELM   =     60;   NELMIN=  2; NELMDL= -5     # of ELM steps 
   EDIFF  = 0.1E-06   stopping-criterion for ELM
   LREAL  =      F    real-space projection
   NLSPLINE    = F    spline interpolate recip. space projectors
   LCOMPAT=      F    compatible to vasp.4.4
   GGA_COMPAT  = T    GGA compatible to vasp.4.4-vasp.4.6
   LMAXPAW     = -100 max onsite density
   LMAXMIX     =    2 max onsite mixed and CHGCAR
   VOSKOWN=      0    Vosko Wilk Nusair interpolation
   ROPT   =    0.00000   0.00000
 Ionic relaxation
   EDIFFG = 0.1E-05   stopping-criterion for IOM
   NSW    =      0    number of steps for IOM
   NBLOCK =      1;   KBLOCK =      1    inner block; outer block 
   IBRION =     -1    ionic relax: 0-MD 1-quasi-New 2-CG
   NFREE  =      0    steps in history (QN), initial steepest desc. (CG)
   ISIF   =      0    stress and relaxation
   IWAVPR =     10    prediction:  0-non 1-charg 2-wave 3-comb
   ISYM   =      2    0-nonsym 1-usesym 2-fastsym
   LCORR  =      T    Harris-Foulkes like correction to forces

   POTIM  = 0.5000    time-step for ionic-motion
   TEIN   =    0.0    initial temperature
   TEBEG  =    0.0;   TEEND  =   0.0 temperature during run
   SMASS  =  -3.00    Nose mass-parameter (am)
   estimated Nose-frequenzy (Omega)   =  0.10E-29 period in steps = 0.13E+47 mass=  -0.347E-26a.u.
   SCALEE = 1.0000    scale energy and forces
   NPACO  =    256;   APACO  = 16.0  distance and # of slots for P.C.
   PSTRESS=    0.0 pullay stress

  Mass of Ions in am
   POMASS =  12.01 16.00
  Ionic Valenz
   ZVAL   =   4.00  6.00
  Atomic Wigner-Seitz radii
   RWIGS  =  -1.00 -1.00
  virtual crystal weights 
   VCA    =   1.00  1.00
   NELECT =     216.0000    total number of electrons
   NUPDOWN=      -1.0000    fix difference up-down

 DOS related values:
   EMIN   =  10.00;   EMAX   =-10.00  energy-range for DOS
   EFERMI =   0.00
   ISMEAR =     0;   SIGMA  =   0.01  broadening in eV -4-tet -1-fermi 0-gaus

 Electronic relaxation 2 (details)
   IALGO  =     58    algorithm
   LDIAG  =      T    sub-space diagonalisation (order eigenvalues)
   LSUBROT=      F    optimize rotation matrix (better conditioning)
   TURBO    =      0    0=normal 1=particle mesh
   IRESTART =      0    0=no restart 2=restart with 2 vectors
   NREBOOT  =      0    no. of reboots
   NMIN     =      0    reboot dimension
   EREF     =   0.00    reference energy to select bands
   IMIX   =      4    mixing-type and parameters
     AMIX     =   0.40;   BMIX     =  1.00
     AMIX_MAG =   1.60;   BMIX_MAG =  1.00
     AMIN     =   0.10
     WC   =   100.;   INIMIX=   1;  MIXPRE=   1;  MAXMIX= -45

 Intra band minimization:
   WEIMIN = 0.0000     energy-eigenvalue tresh-hold
   EBREAK =  0.18E-09  absolut break condition
   DEPER  =   0.30     relativ break condition  

   TIME   =   0.40     timestep for ELM

  volume/ion in A,a.u.               =      49.64       335.01
  Fermi-wavevector in a.u.,A,eV,Ry     =   0.711510  1.344560  6.887909  0.506247
  Thomas-Fermi vector in A             =   1.798641
 
 Write flags
   LWAVE        =      F    write WAVECAR
   LDOWNSAMPLE  =      F    k-point downsampling of WAVECAR
   LCHARG       =      T    write CHGCAR
   LVTOT        =      F    write LOCPOT, total local potential
   LVHAR        =      F    write LOCPOT, Hartree potential only
   LELF         =      F    write electronic localiz. function (ELF)
   LORBIT       =      0    0 simple, 1 ext, 2 COOP (PROOUT), +10 PAW based schemes


 Dipole corrections
   LMONO  =      F    monopole corrections only (constant potential shift)
   LDIPOL =      F    correct potential (dipole corrections)
   IDIPOL =      0    1-x, 2-y, 3-z, 4-all directions 
   EPSILON=  1.0000000 bulk dielectric constant

 Exchange correlation treatment:
   GGA     =    ML    GGA type
   LEXCH   =    44    internal setting for exchange type
   VOSKOWN=      0    Vosko Wilk Nusair interpolation
   LHFCALC =     F    Hartree Fock is set to
   LHFONE  =     F    Hartree Fock one center treatment
   AEXX    =    0.0000 exact exchange contribution

 vdW DFT:
   LUSE_VDW   =     T    switch on vdW DFT
   Zab_VDW    =******    correlation parameter
   PARAM1     =0.1234
   PARAM2     =1.0000
   PARAM3     =0.0000
   -- rVV10 --
   BPARAM     = 6.3000
   CPARAM     = 0.0093

 Linear response parameters
   LEPSILON=     F    determine dielectric tensor
   LRPA    =     F    only Hartree local field effects (RPA)
   LNABLA  =     F    use nabla operator in PAW spheres
   LVEL    =     F    velocity operator in full k-point grid
   LINTERFAST=   F  fast interpolation
   KINTER  =     0    interpolate to denser k-point grid
   CSHIFT  =0.1000    complex shift for real part using Kramers Kronig
   OMEGAMAX=  -1.0    maximum frequency
   DEG_THRESHOLD= 0.2000000E-02 threshold for treating states as degnerate
   RTIME   =   -0.100 relaxation time in fs
  (WPLASMAI=    0.000 imaginary part of plasma frequency in eV, 0.658/RTIME)
   DFIELD  = 0.0000000 0.0000000 0.0000000 field for delta impulse in time
 
 Orbital magnetization related:
   ORBITALMAG=     F  switch on orbital magnetization
   LCHIMAG   =     F  perturbation theory with respect to B field
   DQ        =  0.001000  dq finite difference perturbation B field
   LLRAUG    =     F  two centre corrections for induced B field



--------------------------------------------------------------------------------------------------------


 Static calculation
 charge density and potential will be updated during run
 non-spin polarized calculation
 Conjugate gradient for all bands (Freysoldt, et al. PRB 79, 241103 (2009))
 preconditioned conjugated gradient                                        
 perform sub-space diagonalisation
    before iterative eigenvector-optimisation
 modified Broyden-mixing scheme, WC =      100.0
 initial mixing is a Kerker type mixing with AMIX =  0.4000 and BMIX =      1.0000
 Hartree-type preconditioning will be used
 using additional bands           28
 reciprocal scheme for non local part
 use partial core corrections
 no Harris-corrections to forces 
 use gradient corrections 
 use of overlap-Matrix (Vanderbilt PP)
 Gauss-broadening in eV      SIGMA  =   0.01


--------------------------------------------------------------------------------------------------------


  energy-cutoff  :     1000.00
  volume of cell :     2631.08
      direct lattice vectors                 reciprocal lattice vectors
    12.325000000  0.000000000  0.000000000     0.081135903  0.046843835  0.000000000
    -6.162500000 10.673763102  0.000000000     0.000000000  0.093687670  0.000000000
     0.000000000  0.000000000 20.000000000     0.000000000  0.000000000  0.050000000

  length of vectors
    12.325000000 12.325000000 20.000000000     0.093687670  0.093687670  0.050000000


 
 k-points in units of 2pi/SCALE and weight: auto                                    
   0.00000000  0.00000000  0.00000000       1.000
 
 k-points in reciprocal lattice and weights: auto                                    
   0.00000000  0.00000000  0.00000000       1.000
 
 position of ions in fractional coordinates (direct lattice) 
   0.97245084  0.00032082  0.00070839
   0.03911838  0.13365950  0.00055022
   0.17244363  0.00029545  0.00062454
   0.23909628  0.13364792  0.00032058
   0.97245206  0.20032201  0.00060652
   0.03912836  0.33364377  0.00055519
   0.17245176  0.20035455  0.00027396
   0.23912436  0.33366572  0.00009033
   0.37246557  0.00032440  0.00056739
   0.43913747  0.13361994  0.00032292
   0.97244982  0.40030936  0.00068451
   0.03912498  0.53363679  0.00071676
   0.37241618  0.40032948  0.00000000
   0.43909960  0.53363898  0.00029052
   0.57244368  0.00031213  0.00069947
   0.63911021  0.13363175  0.00068409
   0.97245270  0.60030565  0.00080036
   0.03912449  0.73364036  0.00081814
   0.57243347  0.60030624  0.00050362
   0.63911189  0.73364188  0.00065988
   0.17245463  0.40031823  0.00036131
   0.23912018  0.53363655  0.00047314
   0.37245975  0.20029599  0.00011125
   0.43910710  0.33367342  0.00006970
   0.17245216  0.60031151  0.00065542
   0.23912337  0.73363857  0.00071891
   0.57243108  0.20028917  0.00051662
   0.63911277  0.33361863  0.00057797
   0.37243981  0.60030802  0.00045356
   0.43911609  0.73363786  0.00061774
   0.57246936  0.40032050  0.00042490
   0.63911941  0.53365087  0.00057451
   0.77244572  0.00031543  0.00074520
   0.83911628  0.13364020  0.00071913
   0.77244051  0.20030743  0.00072629
   0.83912024  0.33363573  0.00073183
   0.77244632  0.40029837  0.00072872
   0.83911898  0.53363396  0.00077638
   0.77245614  0.60030817  0.00074464
   0.83911503  0.73364318  0.00078939
   0.97245531  0.80030558  0.00081529
   0.03911471  0.93364329  0.00074756
   0.17245797  0.80031221  0.00077922
   0.23913455  0.93364719  0.00068106
   0.37245140  0.80031667  0.00068925
   0.43912449  0.93364477  0.00067679
   0.57244110  0.80031005  0.00066817
   0.63911507  0.93363899  0.00073456
   0.77244510  0.80031319  0.00075258
   0.83911661  0.93364434  0.00075854
   0.37302101  0.25122688  0.12500000
   0.42087980  0.18931315  0.12822109
   0.32515698  0.31316719  0.12202726
 
 position of ions in cartesian coordinates  (Angst):
  11.98347958  0.00342433  0.01416777
  -0.34154264  1.42664989  0.01100432
   2.12354700  0.00315355  0.01249070
   2.12325634  1.42652621  0.00641170
  10.75098721  2.13818970  0.01213047
  -1.57382270  3.56123457  0.01110375
   0.89078307  2.13853702  0.00547917
   0.89099273  3.56146885  0.00180651
   4.58863896  0.00346260  0.01134782
   4.58893648  1.42622757  0.00645846
   9.51853763  4.27280730  0.01369027
  -2.80632132  5.69591267  0.01433526
   2.12299894  4.27302204  0.00000000
   2.12335237  5.69593607  0.00581036
   7.05344483  0.00333155  0.01398950
   7.05352764  1.42635365  0.01368187
   8.28609598  6.40752033  0.01600723
  -4.03884931  7.83070339  0.01636283
   3.35585531  6.40752662  0.01007237
   3.35598594  7.83071962  0.01319763
  -0.34145776  4.27290193  0.00722612
  -0.34137895  5.69591010  0.00946273
   3.35624236  2.13791198  0.00222492
   3.35573251  3.56155103  0.00139405
  -1.57394684  6.40758280  0.01310850
  -1.57385216  7.83068434  0.01437823
   5.82093107  2.13783916  0.01033241
   5.82114012  3.56096622  0.01155939
   0.89092245  6.40754561  0.00907111
   0.89106251  7.83067670  0.01235474
   4.58870974  4.27292622  0.00849795
   4.58852320  5.69606300  0.01149026
   9.51844972  0.00336679  0.01490402
   9.51855036  1.42644387  0.01438264
   8.28593477  2.13803408  0.01452582
   8.28612680  3.56114872  0.01463668
   7.05356221  4.27268994  0.01457444
   7.05362213  5.69588251  0.01552751
   5.82112285  6.40754723  0.01489279
   5.82101669  7.83073350  0.01578780
   7.05362858  8.54227219  0.01630582
  -5.27148792  9.96548729  0.01495127
  -2.80637951  8.54234295  0.01558431
  -2.80626749  9.96552896  0.01362126
  -0.34148805  8.54239058  0.01378498
  -0.34137657  9.96550309  0.01353576
   2.12342586  8.54231992  0.01336337
   2.12354296  9.96544135  0.01469111
   4.58845581  8.54235337  0.01505154
   4.58852904  9.96549848  0.01517076
   3.04929830  2.68153618  2.50000000
   4.02070129  2.02068374  2.56442186
   2.07766701  3.34267235  2.44054513
 


--------------------------------------------------------------------------------------------------------


 k-point   1 :   0.0000 0.0000 0.0000  plane waves:  189031

 maximum and minimum number of plane-waves per node :      6755     6748

 maximum number of plane-waves:    189031
 maximum index in each direction: 
   IXMAX=   31   IYMAX=   31   IZMAX=   51
   IXMIN=  -31   IYMIN=  -31   IZMIN=  -51


 parallel 3D FFT for wavefunctions:
    minimum data exchange during FFTs selected (reduces bandwidth)
 parallel 3D FFT for charge:
    minimum data exchange during FFTs selected (reduces bandwidth)


 total amount of memory used by VASP MPI-rank0    85439. kBytes
=======================================================================

   base      :      30000. kBytes
   nonl-proj :       6586. kBytes
   fftplans  :      14299. kBytes
   grid      :      23511. kBytes
   one-center:          6. kBytes
   wavefun   :      11037. kBytes
 
     INWAV:  cpu time    0.0000: real time    0.0000
 Broyden mixing: mesh for mixing (old mesh)
   NGX = 63   NGY = 63   NGZ =103
  (NGX  =256   NGY  =256   NGZ  =420)
  gives a total of 408807 points

 initial charge density was supplied:
 charge density of overlapping atoms calculated
 number of electron     216.0000000 magnetization 
 keeping initial charge density in first step


--------------------------------------------------------------------------------------------------------


 Maximum index for augmentation-charges          459 (set IRDMAX)


--------------------------------------------------------------------------------------------------------


 First call to EWALD:  gamma=   0.128
 Maximum number of real-space cells 3x 3x 2
 Maximum number of reciprocal cells 3x 3x 4

    FEWALD:  cpu time    0.0030: real time    0.0030


--------------------------------------- Iteration      1(   1)  ---------------------------------------


vdW kernel read from vdw_kernel.bindat
  0.0000  0.2424  0.5071  0.7962  1.1119  1.4567  1.8333  2.2446  2.6937  3.1842
  3.7199  4.3049  4.9438  5.6415  6.4036  7.2358  8.1446  9.1372 10.2212 11.4050
 12.6979 14.1099 15.6519 17.3360 19.1751 21.1837 23.3773 25.7729 28.3892 31.2465
 34.3669 37.7748 41.4965 45.5611 50.0000
 
    POTLOK:  cpu time    3.3952: real time    3.4495
    SETDIJ:  cpu time    0.0543: real time    0.0559
    TRIAL :  cpu time    1.5423: real time    1.6273
    CORREC:  cpu time    0.0004: real time    0.0006
    --------------------------------------------
      LOOP:  cpu time    4.9948: real time    5.2008

 eigenvalue-minimisations  :   272
 total energy-change (2. order) : 0.2865712E+04  (-0.1100516E+05)
 number of electron     216.0000000 magnetization 
 augmentation part      216.0000000 magnetization 

 Free energy of the ion-electron system (eV)
  ---------------------------------------------------
  alpha Z        PSCENC =        59.93625244
  Ewald energy   TEWEN  =     35411.26856477
  -Hartree energ DENC   =    -41583.62027119
  -exchange      EXHF   =         0.00000000
  -V(xc)+E(xc)   XCENC  =       353.28996727
  PAW double counting   =      6601.42964284    -6299.49404826
  entropy T*S    EENTRO =        -0.00000000
  eigenvalues    EBANDS =      -234.51063396
  atomic energy  EATOM  =      8557.41276814
  ---------------------------------------------------
  free energy    TOTEN  =      2865.71224204 eV

  energy without entropy =     2865.71224204  energy(sigma->0) =     2865.71224204


--------------------------------------------------------------------------------------------------------




--------------------------------------- Iteration      1(   2)  ---------------------------------------


    TRIAL :  cpu time    2.1022: real time    2.1217
    CORREC:  cpu time    0.0001: real time    0.0001
    --------------------------------------------
      LOOP:  cpu time    2.1281: real time    2.1516

 eigenvalue-minimisations  :   432
 total energy-change (2. order) :-0.2438089E+04  (-0.2281550E+04)
 number of electron     216.0000000 magnetization 
 augmentation part      216.0000000 magnetization 

 Free energy of the ion-electron system (eV)
  ---------------------------------------------------
  alpha Z        PSCENC =        59.93625244
  Ewald energy   TEWEN  =     35411.26856477
  -Hartree energ DENC   =    -41583.62027119
  -exchange      EXHF   =         0.00000000
  -V(xc)+E(xc)   XCENC  =       353.28996727
  PAW double counting   =      6601.42964284    -6299.49404826
  entropy T*S    EENTRO =        -0.00000000
  eigenvalues    EBANDS =     -2672.59925754
  atomic energy  EATOM  =      8557.41276814
  ---------------------------------------------------
  free energy    TOTEN  =       427.62361846 eV

  energy without entropy =      427.62361846  energy(sigma->0) =      427.62361846


--------------------------------------------------------------------------------------------------------




--------------------------------------- Iteration      1(   3)  ---------------------------------------


    TRIAL :  cpu time    1.8439: real time    1.8626
    CORREC:  cpu time    0.0001: real time    0.0001
    --------------------------------------------
      LOOP:  cpu time    1.8599: real time    1.9085

 eigenvalue-minimisations  :   368
 total energy-change (2. order) :-0.7973261E+03  (-0.7922351E+03)
 number of electron     216.0000000 magnetization 
 augmentation part      216.0000000 magnetization 

 Free energy of the ion-electron system (eV)
  ---------------------------------------------------
  alpha Z        PSCENC =        59.93625244
  Ewald energy   TEWEN  =     35411.26856477
  -Hartree energ DENC   =    -41583.62027119
  -exchange      EXHF   =         0.00000000
  -V(xc)+E(xc)   XCENC  =       353.28996727
  PAW double counting   =      6601.42964284    -6299.49404826
  entropy T*S    EENTRO =        -0.00000000
  eigenvalues    EBANDS =     -3469.92536196
  atomic energy  EATOM  =      8557.41276814
  ---------------------------------------------------
  free energy    TOTEN  =      -369.70248595 eV

  energy without entropy =     -369.70248595  energy(sigma->0) =     -369.70248595


--------------------------------------------------------------------------------------------------------




--------------------------------------- Iteration      1(   4)  ---------------------------------------


    TRIAL :  cpu time    1.6617: real time    1.6798
    CORREC:  cpu time    0.0001: real time    0.0001
    --------------------------------------------
      LOOP:  cpu time    1.7171: real time    1.7623

 eigenvalue-minimisations  :   320
 total energy-change (2. order) :-0.5997867E+02  (-0.5927151E+02)
 number of electron     216.0000000 magnetization 
 augmentation part      216.0000000 magnetization 

 Free energy of the ion-electron system (eV)
  ---------------------------------------------------
  alpha Z        PSCENC =        59.93625244
  Ewald energy   TEWEN  =     35411.26856477
  -Hartree energ DENC   =    -41583.62027119
  -exchange      EXHF   =         0.00000000
  -V(xc)+E(xc)   XCENC  =       353.28996727
  PAW double counting   =      6601.42964284    -6299.49404826
  entropy T*S    EENTRO =        -0.00000000
  eigenvalues    EBANDS =     -3529.90403009
  atomic energy  EATOM  =      8557.41276814
  ---------------------------------------------------
  free energy    TOTEN  =      -429.68115408 eV

  energy without entropy =     -429.68115408  energy(sigma->0) =     -429.68115408


--------------------------------------------------------------------------------------------------------




--------------------------------------- Iteration      1(   5)  ---------------------------------------


    TRIAL :  cpu time    1.9523: real time    1.9827
    CORREC:  cpu time    0.0001: real time    0.0001
    CHARGE:  cpu time    0.1197: real time    0.1216
    --------------------------------------------
      LOOP:  cpu time    2.0817: real time    2.1485

 eigenvalue-minimisations  :   400
 total energy-change (2. order) :-0.1989917E+01  (-0.1984032E+01)
 number of electron     216.0000000 magnetization 
 augmentation part       -0.1384008 magnetization 

 Free energy of the ion-electron system (eV)
  ---------------------------------------------------
  alpha Z        PSCENC =        59.93625244
  Ewald energy   TEWEN  =     35411.26856477
  -Hartree energ DENC   =    -41583.62027119
  -exchange      EXHF   =         0.00000000
  -V(xc)+E(xc)   XCENC  =       353.28996727
  PAW double counting   =      6601.42964284    -6299.49404826
  entropy T*S    EENTRO =        -0.00000000
  eigenvalues    EBANDS =     -3531.89394758
  atomic energy  EATOM  =      8557.41276814
  ---------------------------------------------------
  free energy    TOTEN  =      -431.67107157 eV

  energy without entropy =     -431.67107157  energy(sigma->0) =     -431.67107157


--------------------------------------------------------------------------------------------------------




--------------------------------------- Iteration      1(   6)  ---------------------------------------


    POTLOK:  cpu time    3.0858: real time    3.1113
    SETDIJ:  cpu time    0.0529: real time    0.0531
    TRIAL :  cpu time    0.8632: real time    0.8717
    CORREC:  cpu time    3.4411: real time    3.4683
    CHARGE:  cpu time    0.1156: real time    0.1169
    --------------------------------------------
      LOOP:  cpu time    7.6154: real time    7.6802

 eigenvalue-minimisations  :     0
 total energy-change (2. order) : 0.6336147E+02  (-0.2173787E+02)
 number of electron     216.0000000 magnetization 
 augmentation part       -0.2712005 magnetization 

 Free energy of the ion-electron system (eV)
  ---------------------------------------------------
  alpha Z        PSCENC =        59.93625244
  Ewald energy   TEWEN  =     35411.26856477
  -Hartree energ DENC   =    -43123.76123932
  -exchange      EXHF   =         0.00000000
  -V(xc)+E(xc)   XCENC  =       408.27115204
  PAW double counting   =     52593.02362040   -52315.22595428
  entropy T*S    EENTRO =        -0.00000000
  eigenvalues    EBANDS =     -1959.23476267
  atomic energy  EATOM  =      8557.41276814
  ---------------------------------------------------
  free energy    TOTEN  =      -368.30959847 eV

  energy without entropy =     -368.30959847  energy(sigma->0) =     -368.30959847


--------------------------------------------------------------------------------------------------------




--------------------------------------- Iteration      1(   7)  ---------------------------------------


    POTLOK:  cpu time    3.1122: real time    3.1358
    SETDIJ:  cpu time    0.0636: real time    0.0638
    TRIAL :  cpu time    0.8548: real time    0.8658
    CORREC:  cpu time    3.4676: real time    3.4954
    CHARGE:  cpu time    0.1171: real time    0.1184
    --------------------------------------------
      LOOP:  cpu time    7.6439: real time    7.7157

 eigenvalue-minimisations  :     0
 total energy-change (2. order) :-0.2182371E+02  (-0.2081784E+01)
 number of electron     216.0000000 magnetization 
 augmentation part       -0.3272445 magnetization 

 Free energy of the ion-electron system (eV)
  ---------------------------------------------------
  alpha Z        PSCENC =        59.93625244
  Ewald energy   TEWEN  =     35411.26856477
  -Hartree energ DENC   =    -42516.98374092
  -exchange      EXHF   =         0.00000000
  -V(xc)+E(xc)   XCENC  =       385.92000415
  PAW double counting   =     68817.13380402   -68532.25357774
  entropy T*S    EENTRO =        -0.00000000
  eigenvalues    EBANDS =     -2572.56738650
  atomic energy  EATOM  =      8557.41276814
  ---------------------------------------------------
  free energy    TOTEN  =      -390.13331163 eV

  energy without entropy =     -390.13331163  energy(sigma->0) =     -390.13331163


--------------------------------------------------------------------------------------------------------




--------------------------------------- Iteration      1(   8)  ---------------------------------------


    POTLOK:  cpu time    3.1029: real time    3.1275
    SETDIJ:  cpu time    0.0626: real time    0.0628
    TRIAL :  cpu time    0.8573: real time    0.8659
    CORREC:  cpu time    3.4796: real time    3.5110
    CHARGE:  cpu time    0.1166: real time    0.1178
    --------------------------------------------
      LOOP:  cpu time    7.6798: real time    7.7480

 eigenvalue-minimisations  :     0
 total energy-change (2. order) :-0.2081697E+01  (-0.5610480E+00)
 number of electron     216.0000000 magnetization 
 augmentation part       -0.3498813 magnetization 

 Free energy of the ion-electron system (eV)
  ---------------------------------------------------
  alpha Z        PSCENC =        59.93625244
  Ewald energy   TEWEN  =     35411.26856477
  -Hartree energ DENC   =    -42501.80692373
  -exchange      EXHF   =         0.00000000
  -V(xc)+E(xc)   XCENC  =       385.54331861
  PAW double counting   =     74310.37963977   -74024.39555090
  entropy T*S    EENTRO =        -0.00000000
  eigenvalues    EBANDS =     -2590.55307743
  atomic energy  EATOM  =      8557.41276814
  ---------------------------------------------------
  free energy    TOTEN  =      -392.21500834 eV

  energy without entropy =     -392.21500834  energy(sigma->0) =     -392.21500834


--------------------------------------------------------------------------------------------------------




--------------------------------------- Iteration      1(   9)  ---------------------------------------


    POTLOK:  cpu time    3.1284: real time    3.1519
    SETDIJ:  cpu time    0.0638: real time    0.0640
    TRIAL :  cpu time    0.8583: real time    0.8664
    CORREC:  cpu time    3.4613: real time    3.4889
    CHARGE:  cpu time    0.1177: real time    0.1189
    --------------------------------------------
      LOOP:  cpu time    7.7024: real time    7.7644

 eigenvalue-minimisations  :     0
 total energy-change (2. order) :-0.5609150E+00  (-0.2073528E+00)
 number of electron     216.0000000 magnetization 
 augmentation part       -0.3585746 magnetization 

 Free energy of the ion-electron system (eV)
  ---------------------------------------------------
  alpha Z        PSCENC =        59.93625244
  Ewald energy   TEWEN  =     35411.26856477
  -Hartree energ DENC   =    -42513.37686777
  -exchange      EXHF   =         0.00000000
  -V(xc)+E(xc)   XCENC  =       385.93581696
  PAW double counting   =     78586.89516157   -78300.45151435
  entropy T*S    EENTRO =        -0.00000000
  eigenvalues    EBANDS =     -2580.39610508
  atomic energy  EATOM  =      8557.41276814
  ---------------------------------------------------
  free energy    TOTEN  =      -392.77592331 eV

  energy without entropy =     -392.77592331  energy(sigma->0) =     -392.77592331


--------------------------------------------------------------------------------------------------------




--------------------------------------- Iteration      1(  10)  ---------------------------------------


    POTLOK:  cpu time    3.1071: real time    3.1366
    SETDIJ:  cpu time    0.0644: real time    0.0646
    TRIAL :  cpu time    0.8581: real time    0.8675
    CORREC:  cpu time    3.4784: real time    3.5102
    CHARGE:  cpu time    0.1168: real time    0.1182
    --------------------------------------------
      LOOP:  cpu time    7.7026: real time    7.7757

 eigenvalue-minimisations  :     0
 total energy-change (2. order) :-0.2068355E+00  (-0.8841837E-01)
 number of electron     216.0000000 magnetization 
 augmentation part       -0.3573315 magnetization 

 Free energy of the ion-electron system (eV)
  ---------------------------------------------------
  alpha Z        PSCENC =        59.93625244
  Ewald energy   TEWEN  =     35411.26856477
  -Hartree energ DENC   =    -42509.45293742
  -exchange      EXHF   =         0.00000000
  -V(xc)+E(xc)   XCENC  =       385.93098557
  PAW double counting   =     80365.29825676   -80078.58036320
  entropy T*S    EENTRO =        -0.00000000
  eigenvalues    EBANDS =     -2584.79628584
  atomic energy  EATOM  =      8557.41276814
  ---------------------------------------------------
  free energy    TOTEN  =      -392.98275878 eV

  energy without entropy =     -392.98275878  energy(sigma->0) =     -392.98275878


--------------------------------------------------------------------------------------------------------




--------------------------------------- Iteration      1(  11)  ---------------------------------------


    POTLOK:  cpu time    3.1031: real time    3.1291
    SETDIJ:  cpu time    0.0628: real time    0.0631
    TRIAL :  cpu time    0.8585: real time    0.8670
    CORREC:  cpu time    3.4919: real time    3.5215
    CHARGE:  cpu time    0.1188: real time    0.1200
    --------------------------------------------
      LOOP:  cpu time    7.7213: real time    7.7915

 eigenvalue-minimisations  :     0
 total energy-change (2. order) :-0.8800704E-01  (-0.3542975E-01)
 number of electron     216.0000000 magnetization 
 augmentation part       -0.3552257 magnetization 

 Free energy of the ion-electron system (eV)
  ---------------------------------------------------
  alpha Z        PSCENC =        59.93625244
  Ewald energy   TEWEN  =     35411.26856477
  -Hartree energ DENC   =    -42503.55703392
  -exchange      EXHF   =         0.00000000
  -V(xc)+E(xc)   XCENC  =       385.87762857
  PAW double counting   =     80482.15588672   -80195.37675453
  entropy T*S    EENTRO =        -0.00000000
  eigenvalues    EBANDS =     -2590.78807802
  atomic energy  EATOM  =      8557.41276814
  ---------------------------------------------------
  free energy    TOTEN  =      -393.07076582 eV

  energy without entropy =     -393.07076582  energy(sigma->0) =     -393.07076582


--------------------------------------------------------------------------------------------------------




--------------------------------------- Iteration      1(  12)  ---------------------------------------


    POTLOK:  cpu time    3.1332: real time    3.1606
    SETDIJ:  cpu time    0.0655: real time    0.0658
    TRIAL :  cpu time    0.8773: real time    0.8876
    CORREC:  cpu time    3.4820: real time    3.5193
    CHARGE:  cpu time    0.1175: real time    0.1191
    --------------------------------------------
      LOOP:  cpu time    7.6970: real time    7.8100

 eigenvalue-minimisations  :     0
 total energy-change (2. order) :-0.3526798E-01  (-0.1160144E-01)
 number of electron     216.0000000 magnetization 
 augmentation part       -0.3547215 magnetization 

 Free energy of the ion-electron system (eV)
  ---------------------------------------------------
  alpha Z        PSCENC =        59.93625244
  Ewald energy   TEWEN  =     35411.26856477
  -Hartree energ DENC   =    -42500.93024153
  -exchange      EXHF   =         0.00000000
  -V(xc)+E(xc)   XCENC  =       385.82030463
  PAW double counting   =     80030.75409152   -79744.02479168
  entropy T*S    EENTRO =        -0.00000000
  eigenvalues    EBANDS =     -2593.34298210
  atomic energy  EATOM  =      8557.41276814
  ---------------------------------------------------
  free energy    TOTEN  =      -393.10603380 eV

  energy without entropy =     -393.10603380  energy(sigma->0) =     -393.10603380


--------------------------------------------------------------------------------------------------------




--------------------------------------- Iteration      1(  13)  ---------------------------------------


    POTLOK:  cpu time    3.1175: real time    3.1457
    SETDIJ:  cpu time    0.0631: real time    0.0634
    TRIAL :  cpu time    0.8566: real time    0.8664
    CORREC:  cpu time    3.4629: real time    3.5004
    CHARGE:  cpu time    0.1177: real time    0.1190
    --------------------------------------------
      LOOP:  cpu time    7.6216: real time    7.7457

 eigenvalue-minimisations  :     0
 total energy-change (2. order) :-0.1158218E-01  (-0.3586049E-02)
 number of electron     216.0000000 magnetization 
 augmentation part       -0.3545795 magnetization 

 Free energy of the ion-electron system (eV)
  ---------------------------------------------------
  alpha Z        PSCENC =        59.93625244
  Ewald energy   TEWEN  =     35411.26856477
  -Hartree energ DENC   =    -42500.46180238
  -exchange      EXHF   =         0.00000000
  -V(xc)+E(xc)   XCENC  =       385.78878312
  PAW double counting   =     79653.91675458   -79367.23759932
  entropy T*S    EENTRO =        -0.00000000
  eigenvalues    EBANDS =     -2593.74133732
  atomic energy  EATOM  =      8557.41276814
  ---------------------------------------------------
  free energy    TOTEN  =      -393.11761598 eV

  energy without entropy =     -393.11761598  energy(sigma->0) =     -393.11761598


--------------------------------------------------------------------------------------------------------




--------------------------------------- Iteration      1(  14)  ---------------------------------------


    POTLOK:  cpu time    3.1169: real time    3.1454
    SETDIJ:  cpu time    0.0630: real time    0.0633
    TRIAL :  cpu time    0.8685: real time    0.8794
    CORREC:  cpu time    3.4989: real time    3.5323
    CHARGE:  cpu time    0.1170: real time    0.1186
    --------------------------------------------
      LOOP:  cpu time    7.7220: real time    7.8081

 eigenvalue-minimisations  :     0
 total energy-change (2. order) :-0.3583022E-02  (-0.1185933E-02)
 number of electron     216.0000000 magnetization 
 augmentation part       -0.3548695 magnetization 

 Free energy of the ion-electron system (eV)
  ---------------------------------------------------
  alpha Z        PSCENC =        59.93625244
  Ewald energy   TEWEN  =     35411.26856477
  -Hartree energ DENC   =    -42500.29336412
  -exchange      EXHF   =         0.00000000
  -V(xc)+E(xc)   XCENC  =       385.76622762
  PAW double counting   =     79513.76362474   -79227.10825549
  entropy T*S    EENTRO =        -0.00000000
  eigenvalues    EBANDS =     -2593.86701711
  atomic energy  EATOM  =      8557.41276814
  ---------------------------------------------------
  free energy    TOTEN  =      -393.12119901 eV

  energy without entropy =     -393.12119901  energy(sigma->0) =     -393.12119901


--------------------------------------------------------------------------------------------------------




--------------------------------------- Iteration      1(  15)  ---------------------------------------


    POTLOK:  cpu time    3.1474: real time    3.1751
    SETDIJ:  cpu time    0.0633: real time    0.0635
    TRIAL :  cpu time    0.8984: real time    0.9069
    CORREC:  cpu time    3.6038: real time    3.6338
    CHARGE:  cpu time    0.1175: real time    0.1187
    --------------------------------------------
      LOOP:  cpu time    7.9109: real time    8.0160

 eigenvalue-minimisations  :     0
 total energy-change (2. order) :-0.1184428E-02  (-0.5251590E-03)
 number of electron     216.0000000 magnetization 
 augmentation part       -0.3549143 magnetization 

 Free energy of the ion-electron system (eV)
  ---------------------------------------------------
  alpha Z        PSCENC =        59.93625244
  Ewald energy   TEWEN  =     35411.26856477
  -Hartree energ DENC   =    -42499.84298038
  -exchange      EXHF   =         0.00000000
  -V(xc)+E(xc)   XCENC  =       385.74239816
  PAW double counting   =     79478.36735388   -79191.71700028
  entropy T*S    EENTRO =        -0.00000000
  eigenvalues    EBANDS =     -2594.28974018
  atomic energy  EATOM  =      8557.41276814
  ---------------------------------------------------
  free energy    TOTEN  =      -393.12238343 eV

  energy without entropy =     -393.12238343  energy(sigma->0) =     -393.12238343


--------------------------------------------------------------------------------------------------------




--------------------------------------- Iteration      1(  16)  ---------------------------------------


    POTLOK:  cpu time    3.1272: real time    3.1526
    SETDIJ:  cpu time    0.0639: real time    0.0641
    TRIAL :  cpu time    0.8542: real time    0.8678
    CORREC:  cpu time    3.4860: real time    3.5195
    CHARGE:  cpu time    0.1180: real time    0.1193
    --------------------------------------------
      LOOP:  cpu time    7.6762: real time    7.7853

 eigenvalue-minimisations  :     0
 total energy-change (2. order) :-0.5228607E-03  (-0.2612011E-03)
 number of electron     216.0000000 magnetization 
 augmentation part       -0.3548795 magnetization 

 Free energy of the ion-electron system (eV)
  ---------------------------------------------------
  alpha Z        PSCENC =        59.93625244
  Ewald energy   TEWEN  =     35411.26856477
  -Hartree energ DENC   =    -42500.07824047
  -exchange      EXHF   =         0.00000000
  -V(xc)+E(xc)   XCENC  =       385.75170819
  PAW double counting   =     79440.71988610   -79154.07405825
  entropy T*S    EENTRO =        -0.00000000
  eigenvalues    EBANDS =     -2594.05978722
  atomic energy  EATOM  =      8557.41276814
  ---------------------------------------------------
  free energy    TOTEN  =      -393.12290629 eV

  energy without entropy =     -393.12290629  energy(sigma->0) =     -393.12290629


--------------------------------------------------------------------------------------------------------




--------------------------------------- Iteration      1(  17)  ---------------------------------------


    POTLOK:  cpu time    3.1338: real time    3.1657
    SETDIJ:  cpu time    0.0626: real time    0.0629
    TRIAL :  cpu time    0.8589: real time    0.8677
    CORREC:  cpu time    3.5208: real time    3.5525
    CHARGE:  cpu time    0.1178: real time    0.1190
    --------------------------------------------
      LOOP:  cpu time    7.7092: real time    7.8414

 eigenvalue-minimisations  :     0
 total energy-change (2. order) :-0.2596559E-03  (-0.1155198E-03)
 number of electron     216.0000000 magnetization 
 augmentation part       -0.3548659 magnetization 

 Free energy of the ion-electron system (eV)
  ---------------------------------------------------
  alpha Z        PSCENC =        59.93625244
  Ewald energy   TEWEN  =     35411.26856477
  -Hartree energ DENC   =    -42500.14524419
  -exchange      EXHF   =         0.00000000
  -V(xc)+E(xc)   XCENC  =       385.75542318
  PAW double counting   =     79404.39787048   -79117.75109574
  entropy T*S    EENTRO =        -0.00000000
  eigenvalues    EBANDS =     -2593.99770504
  atomic energy  EATOM  =      8557.41276814
  ---------------------------------------------------
  free energy    TOTEN  =      -393.12316595 eV

  energy without entropy =     -393.12316595  energy(sigma->0) =     -393.12316595


--------------------------------------------------------------------------------------------------------




--------------------------------------- Iteration      1(  18)  ---------------------------------------


    POTLOK:  cpu time    3.1217: real time    3.1456
    SETDIJ:  cpu time    0.0622: real time    0.0624
    TRIAL :  cpu time    0.8575: real time    0.8659
    CORREC:  cpu time    3.4793: real time    3.5097
    CHARGE:  cpu time    0.1173: real time    0.1185
    --------------------------------------------
      LOOP:  cpu time    7.6904: real time    7.7700

 eigenvalue-minimisations  :     0
 total energy-change (2. order) :-0.1154365E-03  (-0.3866497E-04)
 number of electron     216.0000000 magnetization 
 augmentation part       -0.3548546 magnetization 

 Free energy of the ion-electron system (eV)
  ---------------------------------------------------
  alpha Z        PSCENC =        59.93625244
  Ewald energy   TEWEN  =     35411.26856477
  -Hartree energ DENC   =    -42500.15472771
  -exchange      EXHF   =         0.00000000
  -V(xc)+E(xc)   XCENC  =       385.75544847
  PAW double counting   =     79395.31096794   -79108.66113184
  entropy T*S    EENTRO =        -0.00000000
  eigenvalues    EBANDS =     -2593.99142360
  atomic energy  EATOM  =      8557.41276814
  ---------------------------------------------------
  free energy    TOTEN  =      -393.12328139 eV

  energy without entropy =     -393.12328139  energy(sigma->0) =     -393.12328139


--------------------------------------------------------------------------------------------------------




--------------------------------------- Iteration      1(  19)  ---------------------------------------


    POTLOK:  cpu time    3.1321: real time    3.1599
    SETDIJ:  cpu time    0.0641: real time    0.0643
    TRIAL :  cpu time    0.8709: real time    0.8808
    CORREC:  cpu time    3.4818: real time    3.5119
    CHARGE:  cpu time    0.1163: real time    0.1175
    --------------------------------------------
      LOOP:  cpu time    7.7343: real time    7.8081

 eigenvalue-minimisations  :     0
 total energy-change (2. order) :-0.3889423E-04  (-0.1390633E-04)
 number of electron     216.0000000 magnetization 
 augmentation part       -0.3548761 magnetization 

 Free energy of the ion-electron system (eV)
  ---------------------------------------------------
  alpha Z        PSCENC =        59.93625244
  Ewald energy   TEWEN  =     35411.26856477
  -Hartree energ DENC   =    -42500.24587735
  -exchange      EXHF   =         0.00000000
  -V(xc)+E(xc)   XCENC  =       385.75828222
  PAW double counting   =     79406.84900210   -79120.19805338
  entropy T*S    EENTRO =        -0.00000000
  eigenvalues    EBANDS =     -2593.90425922
  atomic energy  EATOM  =      8557.41276814
  ---------------------------------------------------
  free energy    TOTEN  =      -393.12332028 eV

  energy without entropy =     -393.12332028  energy(sigma->0) =     -393.12332028


--------------------------------------------------------------------------------------------------------




--------------------------------------- Iteration      1(  20)  ---------------------------------------


    POTLOK:  cpu time    3.1249: real time    3.1537
    SETDIJ:  cpu time    0.0623: real time    0.0625
    TRIAL :  cpu time    0.8598: real time    0.8683
    CORREC:  cpu time    3.4955: real time    3.5245
    CHARGE:  cpu time    0.1176: real time    0.1188
    --------------------------------------------
      LOOP:  cpu time    7.7204: real time    7.7928

 eigenvalue-minimisations  :     0
 total energy-change (2. order) :-0.1402473E-04  (-0.5063180E-05)
 number of electron     216.0000000 magnetization 
 augmentation part       -0.3548560 magnetization 

 Free energy of the ion-electron system (eV)
  ---------------------------------------------------
  alpha Z        PSCENC =        59.93625244
  Ewald energy   TEWEN  =     35411.26856477
  -Hartree energ DENC   =    -42500.21261263
  -exchange      EXHF   =         0.00000000
  -V(xc)+E(xc)   XCENC  =       385.75729153
  PAW double counting   =     79420.30391093   -79133.65219618
  entropy T*S    EENTRO =        -0.00000000
  eigenvalues    EBANDS =     -2593.93731331
  atomic energy  EATOM  =      8557.41276814
  ---------------------------------------------------
  free energy    TOTEN  =      -393.12333431 eV

  energy without entropy =     -393.12333431  energy(sigma->0) =     -393.12333431


--------------------------------------------------------------------------------------------------------




--------------------------------------- Iteration      1(  21)  ---------------------------------------


    POTLOK:  cpu time    3.1394: real time    3.1659
    SETDIJ:  cpu time    0.0643: real time    0.0645
    TRIAL :  cpu time    0.8571: real time    0.8667
    CORREC:  cpu time    3.4883: real time    3.5204
    CHARGE:  cpu time    0.1160: real time    0.1172
    --------------------------------------------
      LOOP:  cpu time    7.7132: real time    7.7876

 eigenvalue-minimisations  :     0
 total energy-change (2. order) :-0.5094553E-05  (-0.2321504E-05)
 number of electron     216.0000000 magnetization 
 augmentation part       -0.3548490 magnetization 

 Free energy of the ion-electron system (eV)
  ---------------------------------------------------
  alpha Z        PSCENC =        59.93625244
  Ewald energy   TEWEN  =     35411.26856477
  -Hartree energ DENC   =    -42500.22667825
  -exchange      EXHF   =         0.00000000
  -V(xc)+E(xc)   XCENC  =       385.75799188
  PAW double counting   =     79427.45179739   -79140.80036656
  entropy T*S    EENTRO =        -0.00000000
  eigenvalues    EBANDS =     -2593.92366921
  atomic energy  EATOM  =      8557.41276814
  ---------------------------------------------------
  free energy    TOTEN  =      -393.12333940 eV

  energy without entropy =     -393.12333940  energy(sigma->0) =     -393.12333940


--------------------------------------------------------------------------------------------------------




--------------------------------------- Iteration      1(  22)  ---------------------------------------


    POTLOK:  cpu time    3.1226: real time    3.1470
    SETDIJ:  cpu time    0.0629: real time    0.0631
    TRIAL :  cpu time    0.8592: real time    0.8680
    CORREC:  cpu time    3.4799: real time    3.5131
    CHARGE:  cpu time    0.1165: real time    0.1177
    --------------------------------------------
      LOOP:  cpu time    7.6568: real time    7.7776

 eigenvalue-minimisations  :     0
 total energy-change (2. order) :-0.2290821E-05  (-0.8804209E-06)
 number of electron     216.0000000 magnetization 
 augmentation part       -0.3548400 magnetization 

 Free energy of the ion-electron system (eV)
  ---------------------------------------------------
  alpha Z        PSCENC =        59.93625244
  Ewald energy   TEWEN  =     35411.26856477
  -Hartree energ DENC   =    -42500.21605994
  -exchange      EXHF   =         0.00000000
  -V(xc)+E(xc)   XCENC  =       385.75755341
  PAW double counting   =     79429.15901690   -79142.50773233
  entropy T*S    EENTRO =        -0.00000000
  eigenvalues    EBANDS =     -2593.93370508
  atomic energy  EATOM  =      8557.41276814
  ---------------------------------------------------
  free energy    TOTEN  =      -393.12334169 eV

  energy without entropy =     -393.12334169  energy(sigma->0) =     -393.12334169


--------------------------------------------------------------------------------------------------------




--------------------------------------- Iteration      1(  23)  ---------------------------------------


    POTLOK:  cpu time    3.1439: real time    3.1722
    SETDIJ:  cpu time    0.0617: real time    0.0620
    TRIAL :  cpu time    0.8599: real time    0.8695
    CORREC:  cpu time    3.4987: real time    3.5278
    CHARGE:  cpu time    0.1178: real time    0.1190
    --------------------------------------------
      LOOP:  cpu time    7.7163: real time    7.8212

 eigenvalue-minimisations  :     0
 total energy-change (2. order) :-0.8763745E-06  (-0.3885673E-06)
 number of electron     216.0000000 magnetization 
 augmentation part       -0.3548390 magnetization 

 Free energy of the ion-electron system (eV)
  ---------------------------------------------------
  alpha Z        PSCENC =        59.93625244
  Ewald energy   TEWEN  =     35411.26856477
  -Hartree energ DENC   =    -42500.21463029
  -exchange      EXHF   =         0.00000000
  -V(xc)+E(xc)   XCENC  =       385.75751410
  PAW double counting   =     79428.35094018   -79141.69978054
  entropy T*S    EENTRO =        -0.00000000
  eigenvalues    EBANDS =     -2593.93497137
  atomic energy  EATOM  =      8557.41276814
  ---------------------------------------------------
  free energy    TOTEN  =      -393.12334257 eV

  energy without entropy =     -393.12334257  energy(sigma->0) =     -393.12334257


--------------------------------------------------------------------------------------------------------




--------------------------------------- Iteration      1(  24)  ---------------------------------------


    POTLOK:  cpu time    3.1392: real time    3.1661
    SETDIJ:  cpu time    0.0615: real time    0.0618
    TRIAL :  cpu time    0.8598: real time    0.8683
    CORREC:  cpu time    3.5049: real time    3.5324
    CHARGE:  cpu time    0.1160: real time    0.1172
    --------------------------------------------
      LOOP:  cpu time    7.7509: real time    7.8296

 eigenvalue-minimisations  :     0
 total energy-change (2. order) :-0.3892783E-06  (-0.1943117E-06)
 number of electron     216.0000000 magnetization 
 augmentation part       -0.3548447 magnetization 

 Free energy of the ion-electron system (eV)
  ---------------------------------------------------
  alpha Z        PSCENC =        59.93625244
  Ewald energy   TEWEN  =     35411.26856477
  -Hartree energ DENC   =    -42500.21005852
  -exchange      EXHF   =         0.00000000
  -V(xc)+E(xc)   XCENC  =       385.75741796
  PAW double counting   =     79427.27448029   -79140.62332374
  entropy T*S    EENTRO =        -0.00000000
  eigenvalues    EBANDS =     -2593.93944430
  atomic energy  EATOM  =      8557.41276814
  ---------------------------------------------------
  free energy    TOTEN  =      -393.12334296 eV

  energy without entropy =     -393.12334296  energy(sigma->0) =     -393.12334296


--------------------------------------------------------------------------------------------------------




--------------------------------------- Iteration      1(  25)  ---------------------------------------


    POTLOK:  cpu time    3.1296: real time    3.1531
    SETDIJ:  cpu time    0.0638: real time    0.0640
    TRIAL :  cpu time    0.8570: real time    0.8690
    CORREC:  cpu time    3.4842: real time    3.5138
    CHARGE:  cpu time    0.1180: real time    0.1192
    --------------------------------------------
      LOOP:  cpu time    7.6960: real time    7.7876

 eigenvalue-minimisations  :     0
 total energy-change (2. order) :-0.1862209E-06  (-0.9082338E-07)
 number of electron     216.0000000 magnetization 
 augmentation part       -0.3548468 magnetization 

 Free energy of the ion-electron system (eV)
  ---------------------------------------------------
  alpha Z        PSCENC =        59.93625244
  Ewald energy   TEWEN  =     35411.26856477
  -Hartree energ DENC   =    -42500.20696827
  -exchange      EXHF   =         0.00000000
  -V(xc)+E(xc)   XCENC  =       385.75730794
  PAW double counting   =     79426.60823475   -79139.95702911
  entropy T*S    EENTRO =        -0.00000000
  eigenvalues    EBANDS =     -2593.94247380
  atomic energy  EATOM  =      8557.41276814
  ---------------------------------------------------
  free energy    TOTEN  =      -393.12334314 eV

  energy without entropy =     -393.12334314  energy(sigma->0) =     -393.12334314


--------------------------------------------------------------------------------------------------------




--------------------------------------- Iteration      1(  26)  ---------------------------------------


    POTLOK:  cpu time    3.1230: real time    3.1477
    SETDIJ:  cpu time    0.0646: real time    0.0648
    TRIAL :  cpu time    0.8588: real time    0.8682
    CORREC:  cpu time    3.4772: real time    3.5116
    EDDIAG:  cpu time    0.3264: real time    0.3306
    CHARGE:  cpu time    0.1180: real time    0.1192
    --------------------------------------------
      LOOP:  cpu time    8.0497: real time    8.1329

 eigenvalue-minimisations  :     0
 total energy-change (2. order) :-0.8106872E-07  (-0.4829443E-07)
 number of electron     216.0000000 magnetization 
 augmentation part       -0.3548510 magnetization 

 Free energy of the ion-electron system (eV)
  ---------------------------------------------------
  alpha Z        PSCENC =        59.93625244
  Ewald energy   TEWEN  =     35411.26856477
  -Hartree energ DENC   =    -42500.21091803
  -exchange      EXHF   =         0.00000000
  -V(xc)+E(xc)   XCENC  =       385.75748732
  PAW double counting   =     79426.43839150   -79139.78721739
  entropy T*S    EENTRO =        -0.00000000
  eigenvalues    EBANDS =     -2593.93867197
  atomic energy  EATOM  =      8557.41276814
  ---------------------------------------------------
  free energy    TOTEN  =      -393.12334322 eV

  energy without entropy =     -393.12334322  energy(sigma->0) =     -393.12334322


--------------------------------------------------------------------------------------------------------


  average scaling for gradient   0.8305


 average (electrostatic) potential at core
  the test charge radii are     0.5770  0.5955
  (the norm of the test charge is              1.0000)
       1 -86.4591       2 -86.4497       3 -86.4675       4 -86.4610       5 -86.4469
       6 -86.4413       7 -86.4426       8 -86.4082       9 -86.4378      10 -86.4210
      11 -86.4468      12 -86.4563      13 -86.4201      14 -86.4331      15 -86.4479
      16 -86.4421      17 -86.4494      18 -86.4499      19 -86.4573      20 -86.4509
      21 -86.4284      22 -86.4383      23 -86.4470      24 -86.4355      25 -86.4459
      26 -86.4485      27 -86.4360      28 -86.4609      29 -86.4407      30 -86.4458
      31 -86.4731      32 -86.4584      33 -86.4607      34 -86.4490      35 -86.4445
      36 -86.4497      37 -86.4514      38 -86.4548      39 -86.4545      40 -86.4495
      41 -86.4519      42 -86.4570      43 -86.4489      44 -86.4577      45 -86.4437
      46 -86.4424      47 -86.4563      48 -86.4506      49 -86.4533      50 -86.4518
      51 -90.5829      52-120.3132      53-120.3240
 
 
 
 E-fermi :  -4.0083     XC(G=0):  -2.6862     alpha+bet : -2.1113

 Fermi energy:        -4.0083089669

 k-point     1 :       0.0000    0.0000    0.0000
  band No.  band energies     occupation 
      1     -27.4937      2.00000
      2     -26.5220      2.00000
      3     -22.0648      2.00000
      4     -21.1657      2.00000
      5     -21.1422      2.00000
      6     -21.1331      2.00000
      7     -21.1310      2.00000
      8     -21.1284      2.00000
      9     -21.1236      2.00000
     10     -19.3422      2.00000
     11     -19.3299      2.00000
     12     -19.3186      2.00000
     13     -19.3175      2.00000
     14     -19.3135      2.00000
     15     -19.3128      2.00000
     16     -18.4565      2.00000
     17     -18.4468      2.00000
     18     -18.4404      2.00000
     19     -18.4389      2.00000
     20     -18.4351      2.00000
     21     -18.4339      2.00000
     22     -16.3618      2.00000
     23     -16.3552      2.00000
     24     -16.3465      2.00000
     25     -16.3422      2.00000
     26     -16.3368      2.00000
     27     -16.3355      2.00000
     28     -15.3130      2.00000
     29     -15.3076      2.00000
     30     -15.3001      2.00000
     31     -15.2984      2.00000
     32     -15.2955      2.00000
     33     -15.2938      2.00000
     34     -13.9980      2.00000
     35     -13.9923      2.00000
     36     -13.9896      2.00000
     37     -13.9875      2.00000
     38     -13.9849      2.00000
     39     -13.9840      2.00000
     40     -12.4434      2.00000
     41     -11.7110      2.00000
     42     -11.7009      2.00000
     43     -11.6895      2.00000
     44     -11.6879      2.00000
     45     -11.6864      2.00000
     46     -11.6823      2.00000
     47     -11.5533      2.00000
     48     -11.5302      2.00000
     49     -11.5247      2.00000
     50     -11.5230      2.00000
     51     -11.5165      2.00000
     52     -11.5156      2.00000
     53     -11.3960      2.00000
     54     -11.3264      2.00000
     55     -11.1429      2.00000
     56     -10.1765      2.00000
     57     -10.1725      2.00000
     58     -10.1702      2.00000
     59     -10.1694      2.00000
     60     -10.1684      2.00000
     61     -10.1653      2.00000
     62     -10.1421      2.00000
     63      -9.1384      2.00000
     64      -9.1256      2.00000
     65      -9.1247      2.00000
     66      -9.1224      2.00000
     67      -9.1156      2.00000
     68      -8.9953      2.00000
     69      -8.9902      2.00000
     70      -8.9883      2.00000
     71      -8.9858      2.00000
     72      -8.9844      2.00000
     73      -8.9819      2.00000
     74      -8.9371      2.00000
     75      -8.9342      2.00000
     76      -8.9332      2.00000
     77      -8.9302      2.00000
     78      -8.9293      2.00000
     79      -8.9269      2.00000
     80      -8.8729      2.00000
     81      -7.8080      2.00000
     82      -7.6714      2.00000
     83      -7.3828      2.00000
     84      -7.3788      2.00000
     85      -7.3782      2.00000
     86      -7.3729      2.00000
     87      -7.3723      2.00000
     88      -7.3709      2.00000
     89      -7.0175      2.00000
     90      -7.0041      2.00000
     91      -7.0008      2.00000
     92      -6.9747      2.00000
     93      -6.9520      2.00000
     94      -6.8021      2.00000
     95      -6.1298      2.00000
     96      -6.1239      2.00000
     97      -6.1172      2.00000
     98      -6.1024      2.00000
     99      -6.0839      2.00000
    100      -5.9708      2.00000
    101      -5.9538      2.00000
    102      -5.9501      2.00000
    103      -4.1781      2.00000
    104      -4.1682      2.00000
    105      -4.1520      2.00000
    106      -4.1493      2.00000
    107      -4.1479      2.00000
    108      -4.1330      2.00000
    109      -1.4240      0.00000
    110      -1.4058      0.00000
    111      -1.3739      0.00000
    112      -1.3685      0.00000
    113      -1.3633      0.00000
    114      -1.3457      0.00000
    115      -0.1030      0.00000
    116       0.3468      0.00000
    117       0.4049      0.00000
    118       0.4609      0.00000
    119       0.4749      0.00000
    120       0.4827      0.00000
    121       0.4956      0.00000
    122       0.6926      0.00000
    123       0.8537      0.00000
    124       1.0041      0.00000
    125       1.1370      0.00000
    126       1.2159      0.00000
    127       1.2500      0.00000
    128       1.2531      0.00000
    129       1.2569      0.00000
    130       1.3710      0.00000
    131       1.5985      0.00000
    132       1.9719      0.00000
    133       2.1079      0.00000
    134       2.1778      0.00000
    135       2.1912      0.00000
    136       2.2121      0.00000


--------------------------------------------------------------------------------------------------------


 soft charge-density along one line, spin component           1
         0         1         2         3         4         5         6         7         8         9
 total charge-density along one line
 
 pseudopotential strength for first ion, spin component:           1
 12.607  21.217   0.000   0.000   0.000   0.000   0.000   0.000
 21.217  35.706   0.000   0.000   0.000   0.000   0.000   0.000
  0.000   0.000  -3.322  -0.000   0.000  -5.953  -0.000   0.000
  0.000   0.000  -0.000  -3.357  -0.000  -0.000  -6.015  -0.000
  0.000   0.000   0.000  -0.000  -3.322   0.000  -0.000  -5.953
  0.000   0.000  -5.953  -0.000   0.000 -10.646  -0.000   0.000
  0.000   0.000  -0.000  -6.015  -0.000  -0.000 -10.757  -0.000
  0.000   0.000   0.000  -0.000  -5.953   0.000  -0.000 -10.646
 total augmentation occupancy for first ion, spin component:           1
  6.240  -2.003  -0.000  -0.001   0.000   0.000   0.001  -0.000
 -2.003   0.690   0.000   0.000  -0.000  -0.000  -0.000   0.000
 -0.000   0.000   5.991  -0.007   0.000  -1.877   0.003  -0.000
 -0.001   0.000  -0.007   2.308  -0.000   0.003  -0.482  -0.000
  0.000  -0.000   0.000  -0.000   5.991  -0.000  -0.000  -1.877
  0.000  -0.000  -1.877   0.003  -0.000   0.606  -0.001   0.000
  0.001  -0.000   0.003  -0.482  -0.000  -0.001   0.111   0.000
 -0.000   0.000  -0.000  -0.000  -1.877   0.000   0.000   0.606


------------------------ aborting loop because EDIFF is reached ----------------------------------------


    FORLOC:  cpu time    0.0525: real time    0.0530
    FORNL :  cpu time    0.6925: real time    0.6977
    FORCOR:  cpu time    3.1992: real time    3.2246
    OFIELD:  cpu time    0.0012: real time    0.0012

 VOLUME and BASIS-vectors are now :
 -----------------------------------------------------------------------------
  energy-cutoff  :     1000.00
  volume of cell :     2631.08
      direct lattice vectors                 reciprocal lattice vectors
    12.325000000  0.000000000  0.000000000     0.081135903  0.046843835  0.000000000
    -6.162500000 10.673763102  0.000000000     0.000000000  0.093687670  0.000000000
     0.000000000  0.000000000 20.000000000     0.000000000  0.000000000  0.050000000

  length of vectors
    12.325000000 12.325000000 20.000000000     0.093687670  0.093687670  0.050000000


 FORCES acting on ions:
    Electron-Ion                     Ewald-Force                    Non-Local-Force
 -----------------------------------------------------------------------------------------------
   0.147E+02 0.130E+02 0.216E+02   -.147E+02 -.130E+02 -.217E+02   0.136E-01 -.125E-01 0.235E-01
   0.257E+02 0.130E+02 0.311E+02   -.257E+02 -.129E+02 -.311E+02   0.292E-01 -.172E-01 0.455E-02
   0.137E+02 0.341E+02 0.417E+02   -.137E+02 -.342E+02 -.417E+02   0.396E-02 0.787E-01 0.795E-01
   0.247E+02 0.365E+02 0.801E+02   -.249E+02 -.366E+02 -.803E+02   0.141E+00 0.521E-01 0.290E-01
   0.162E+02 0.387E+01 0.217E+02   -.162E+02 -.385E+01 -.217E+02   -.837E-03 -.245E-01 0.193E-02
   0.172E+02 -.278E+01 0.224E+02   -.172E+02 0.280E+01 -.224E+02   -.395E-01 -.112E-01 -.367E-02
   0.398E+02 0.176E+02 0.652E+02   -.400E+02 -.175E+02 -.651E+02   0.593E-01 -.141E+00 -.156E+00
   0.409E+02 -.131E+02 0.727E+02   -.408E+02 0.132E+02 -.725E+02   -.881E-01 -.312E-01 -.480E+00
   -.148E+02 0.327E+02 0.445E+02   0.148E+02 -.326E+02 -.445E+02   -.283E-01 -.844E-02 -.859E-01
   -.307E+02 0.267E+02 0.808E+02   0.308E+02 -.267E+02 -.807E+02   -.557E-01 0.483E-02 -.583E+00
   0.386E+01 -.330E+01 0.163E+02   -.384E+01 0.327E+01 -.162E+02   -.116E-01 0.978E-02 -.686E-02
   0.299E+01 -.240E+01 0.148E+02   -.299E+01 0.240E+01 -.148E+02   -.191E-01 0.825E-02 0.153E-02
   0.146E+02 -.393E+02 0.872E+02   -.148E+02 0.394E+02 -.871E+02   0.156E+00 0.879E-01 -.631E+00
   0.600E+01 -.351E+02 0.428E+02   -.605E+01 0.351E+02 -.428E+02   0.383E-01 -.188E-01 -.554E-01
   -.146E+02 0.923E+01 0.214E+02   0.146E+02 -.922E+01 -.214E+02   0.247E-01 -.142E-01 0.200E-02
   -.225E+02 0.620E+01 0.267E+02   0.225E+02 -.619E+01 -.267E+02   0.716E-02 0.184E-02 -.186E-01
   -.201E+01 -.837E+00 0.140E+02   0.202E+01 0.833E+00 -.140E+02   -.427E-03 -.836E-02 0.209E-02
   0.117E+01 0.758E+01 0.153E+02   -.117E+01 -.757E+01 -.153E+02   -.115E-01 0.552E-02 0.848E-02
   -.476E+01 -.266E+02 0.290E+02   0.473E+01 0.266E+02 -.291E+02   0.504E-01 0.321E-02 0.425E-01
   -.183E+01 -.119E+02 0.175E+02   0.183E+01 0.119E+02 -.175E+02   -.747E-03 -.544E-02 -.106E-02
   0.278E+02 -.120E+02 0.350E+02   -.277E+02 0.119E+02 -.350E+02   -.104E-01 -.486E-02 -.475E-01
   0.154E+02 -.134E+02 0.247E+02   -.153E+02 0.134E+02 -.247E+02   -.207E-01 0.351E-01 0.186E-02
   -.707E+01 0.189E+02 0.117E+03   0.730E+01 -.191E+02 -.117E+03   -.250E+00 0.149E+00 -.541E+00
   -.161E+02 -.304E+02 0.106E+03   0.160E+02 0.306E+02 -.106E+03   0.187E+00 -.150E+00 -.387E+00
   0.665E+01 -.303E+01 0.164E+02   -.661E+01 0.302E+01 -.164E+02   -.215E-01 0.453E-02 -.994E-02
   0.114E+01 0.601E+01 0.167E+02   -.113E+01 -.601E+01 -.167E+02   -.152E-01 0.549E-02 -.265E-02
   -.385E+02 0.378E+01 0.516E+02   0.385E+02 -.387E+01 -.515E+02   0.140E-01 0.449E-01 -.136E+00
   -.335E+02 -.150E+02 0.435E+02   0.335E+02 0.149E+02 -.435E+02   -.599E-01 0.591E-01 0.438E-01
   0.940E+01 -.195E+02 0.263E+02   -.941E+01 0.195E+02 -.263E+02   0.299E-02 0.232E-01 -.514E-02
   0.865E+00 -.673E+01 0.179E+02   -.891E+00 0.670E+01 -.178E+02   0.110E-01 0.176E-01 -.988E-02
   -.287E+02 -.316E+02 0.577E+02   0.288E+02 0.316E+02 -.578E+02   -.994E-01 -.693E-01 0.128E+00
   -.146E+02 -.264E+02 0.319E+02   0.146E+02 0.265E+02 -.319E+02   -.594E-02 -.476E-01 0.477E-01
   0.738E+00 0.310E+01 0.147E+02   -.735E+00 -.310E+01 -.147E+02   0.109E-01 -.122E-01 0.328E-02
   0.218E+01 0.318E+01 0.162E+02   -.219E+01 -.314E+01 -.162E+02   0.150E-02 -.156E-01 -.718E-02
   -.100E+02 0.113E+01 0.185E+02   0.100E+02 -.114E+01 -.185E+02   0.166E-01 0.217E-02 -.242E-02
   -.850E+01 -.334E+01 0.177E+02   0.851E+01 0.334E+01 -.177E+02   -.129E-01 0.120E-01 -.491E-02
   -.178E+02 -.933E+01 0.225E+02   0.178E+02 0.932E+01 -.225E+02   -.228E-01 0.215E-02 0.190E-02
   -.979E+01 -.799E+01 0.174E+02   0.979E+01 0.799E+01 -.174E+02   -.128E-01 0.362E-02 0.115E-01
   -.931E+01 -.122E+02 0.191E+02   0.932E+01 0.122E+02 -.191E+02   -.136E-01 -.163E-01 0.592E-02
   -.135E+01 -.281E+01 0.152E+02   0.134E+01 0.282E+01 -.152E+02   -.305E-02 -.156E-02 0.685E-02
   0.349E+01 0.821E+01 0.162E+02   -.348E+01 -.823E+01 -.162E+02   -.977E-03 0.152E-01 0.675E-02
   0.121E+02 0.189E+02 0.237E+02   -.121E+02 -.189E+02 -.237E+02   0.191E-01 0.262E-01 0.188E-01
   0.940E+00 0.151E+02 0.190E+02   -.931E+00 -.151E+02 -.190E+02   -.672E-02 0.142E-01 -.743E-03
   0.514E+00 0.311E+02 0.339E+02   -.477E+00 -.311E+02 -.340E+02   -.612E-01 0.138E-01 0.460E-01
   -.287E+01 0.577E+01 0.179E+02   0.288E+01 -.576E+01 -.179E+02   0.159E-02 -.103E-01 -.745E-02
   -.127E+02 0.164E+02 0.250E+02   0.127E+02 -.164E+02 -.250E+02   0.313E-02 -.485E-02 -.118E-01
   -.193E+01 -.555E+01 0.160E+02   0.192E+01 0.555E+01 -.160E+02   0.178E-01 0.417E-02 0.189E-03
   -.522E+01 0.217E+01 0.152E+02   0.520E+01 -.217E+01 -.152E+02   0.160E-01 -.309E-02 -.846E-02
   0.376E+00 -.344E+01 0.149E+02   -.362E+00 0.342E+01 -.149E+02   0.709E-02 -.197E-02 0.394E-02
   0.543E+01 0.401E+01 0.151E+02   -.543E+01 -.401E+01 -.151E+02   -.160E-03 0.118E-01 0.411E-02
   0.542E+00 -.265E+00 -.411E+03   -.545E+00 0.257E+00 0.412E+03   -.560E-01 0.236E-01 0.873E-02
   -.229E+03 0.155E+03 -.630E+03   0.279E+03 -.189E+03 0.633E+03   -.506E+02 0.346E+02 -.159E+01
   0.229E+03 -.155E+03 -.609E+03   -.279E+03 0.189E+03 0.605E+03   0.506E+02 -.348E+02 0.480E+01
 -----------------------------------------------------------------------------------------------
   0.613E-01 0.556E-01 -.549E+00   0.114E-12 0.000E+00 0.227E-12   -.615E-01 -.554E-01 0.545E+00
 
 
 POSITION                                       TOTAL-FORCE (eV/Angst)
 -----------------------------------------------------------------------------------
     11.98348      0.00342      0.01417        -0.001423     -0.009768      0.001347
     -0.34154      1.42665      0.01100         0.028658      0.021238      0.002422
      2.12355      0.00315      0.01249         0.010587     -0.026467      0.015721
      2.12326      1.42653      0.00641        -0.015542     -0.003018     -0.149014
     10.75099      2.13819      0.01213        -0.005294     -0.002115      0.006127
     -1.57382      3.56123      0.01110        -0.011439      0.008181      0.005579
      0.89078      2.13854      0.00548        -0.055727      0.004947     -0.118140
      0.89099      3.56147      0.00181        -0.068715      0.050338     -0.281205
      4.58864      0.00346      0.01135         0.018474      0.086415     -0.025424
      4.58894      1.42623      0.00646         0.076190     -0.070356     -0.378251
      9.51854      4.27281      0.01369         0.009933     -0.021441      0.000339
     -2.80632      5.69591      0.01434        -0.022349      0.013538      0.001004
      2.12300      4.27302      0.00000        -0.041958      0.152898     -0.470481
      2.12335      5.69594      0.00581        -0.012493     -0.105914     -0.021004
      7.05344      0.00333      0.01399         0.001920     -0.000543      0.007327
      7.05353      1.42635      0.01368        -0.008777      0.009279      0.004977
      8.28610      6.40752      0.01601         0.008393     -0.011964      0.000146
     -4.03885      7.83070      0.01636        -0.014555      0.013742      0.000323
      3.35586      6.40753      0.01007         0.026181      0.012777      0.011455
      3.35599      7.83072      0.01320        -0.004074     -0.011937      0.000844
     -0.34146      4.27290      0.00723         0.058093     -0.036249     -0.004766
     -0.34138      5.69591      0.00946        -0.007718      0.013510      0.012118
      3.35624      2.13791      0.00222        -0.016735     -0.043946     -0.782927
      3.35573      3.56155      0.00139         0.066770      0.084763     -0.544997
     -1.57395      6.40758      0.01311         0.021251      0.000881     -0.001170
     -1.57385      7.83068      0.01438        -0.005338      0.002885     -0.000001
      5.82093      2.13784      0.01033        -0.045689     -0.049244     -0.057208
      5.82114      3.56097      0.01156         0.007360      0.003694      0.010308
      0.89092      6.40755      0.00907        -0.006777      0.003527      0.011637
      0.89106      7.83068      0.01235        -0.015587     -0.008039      0.000115
      4.58871      4.27293      0.00850        -0.008933     -0.026460     -0.010039
      4.58852      5.69606      0.01149        -0.003715      0.032189      0.010020
      9.51845      0.00337      0.01490         0.013049     -0.011768      0.000381
      9.51855      1.42644      0.01438        -0.004308      0.020472     -0.000518
      8.28593      2.13803      0.01453         0.001450     -0.012743      0.002138
      8.28613      3.56115      0.01464        -0.003272      0.003591      0.000539
      7.05356      4.27269      0.01457        -0.004954     -0.006148      0.003100
      7.05362      5.69588      0.01553        -0.003904      0.005460     -0.000179
      5.82112      6.40755      0.01489        -0.001018     -0.006081     -0.001213
      5.82102      7.83073      0.01579        -0.014005      0.010312      0.000043
      7.05363      8.54227      0.01631         0.011419     -0.007546      0.000818
     -5.27149      9.96549      0.01495        -0.001941      0.002157     -0.001015
     -2.80638      8.54234      0.01558         0.002163      0.007436      0.000611
     -2.80627      9.96553      0.01362        -0.022327     -0.009347      0.015279
     -0.34149      8.54239      0.01378         0.008580      0.003013      0.000972
     -0.34138      9.96550      0.01354        -0.007451      0.003091      0.007938
      2.12343      8.54232      0.01336         0.009505      0.002463      0.000359
      2.12354      9.96544      0.01469        -0.010120     -0.000796     -0.002225
      4.58846      8.54235      0.01505         0.021415     -0.014773      0.001542
      4.58853      9.96550      0.01517        -0.001085      0.013352      0.001314
      3.04930      2.68154      2.50000        -0.057961      0.014614      0.697068
      4.02070      2.02068      2.56442        -0.422544      0.362330      0.887860
      2.07767      3.34267      2.44055         0.526334     -0.466433      1.128009
 -----------------------------------------------------------------------------------
    total drift:                               -0.000251      0.000193     -0.003804


--------------------------------------------------------------------------------------------------------



  FREE ENERGIE OF THE ION-ELECTRON SYSTEM (eV)
  ---------------------------------------------------
  free  energy   TOTEN  =      -393.12334322 eV

  energy  without entropy=     -393.12334322  energy(sigma->0) =     -393.12334322
 


--------------------------------------------------------------------------------------------------------


    POTLOK:  cpu time    3.1939: real time    3.2182


--------------------------------------------------------------------------------------------------------


     LOOP+:  cpu time  203.8625: real time  206.7056
    4ORBIT:  cpu time    0.0000: real time    0.0000

 total amount of memory used by VASP MPI-rank0    85439. kBytes
=======================================================================

   base      :      30000. kBytes
   nonl-proj :       6586. kBytes
   fftplans  :      14299. kBytes
   grid      :      23511. kBytes
   one-center:          6. kBytes
   wavefun   :      11037. kBytes
 
  
  
 General timing and accounting informations for this job:
 ========================================================
  
                  Total CPU time used (sec):      238.074
                            User time (sec):      220.253
                          System time (sec):       17.821
                         Elapsed time (sec):      242.881
  
                   Maximum memory used (kb):      679964.
                   Average memory used (kb):          N/A
  
                          Minor page faults:       327207
                          Major page faults:          458
                 Voluntary context switches:         4749
