 vasp.6.2.1 16May21 (build Nov 06 2021 14:46:37) complex                        
  
 executed on             LinuxIFC date 2025.04.16  19:42:27
 running on  112 total cores
 distrk:  each k-point on  112 cores,    1 groups
 distr:  one band on NCORE=  28 cores,    4 groups


--------------------------------------------------------------------------------------------------------


 INCAR:
   NPAR = 4
   ALGO = Conjugate
   ISMEAR = 0
   SIGMA = 0.01
   PREC = Accurate
   EDIFF = 1E-7
   ENCUT = 1000
   ISIF = 0
   GGA = ML
   LUSE_VDW = .TRUE.
   ZAB_VDW = -1.8867
   AGGAC = 0.0000
   LASPH = .TRUE.
   SYMPREC = 1E-7
   LWAVE = .FALSE.
   LCHARGE = .FALSE.

 POTCAR:    PAW_PBE C_h 06Feb2004                 
 POTCAR:    PAW_PBE O_h 06Feb2004                 
 -----------------------------------------------------------------------------
|                                                                             |
|           W    W    AA    RRRRR   N    N  II  N    N   GGGG   !!!           |
|           W    W   A  A   R    R  NN   N  II  NN   N  G    G  !!!           |
|           W    W  A    A  R    R  N N  N  II  N N  N  G       !!!           |
|           W WW W  AAAAAA  RRRRR   N  N N  II  N  N N  G  GGG   !            |
|           WW  WW  A    A  R   R   N   NN  II  N   NN  G    G                |
|           W    W  A    A  R    R  N    N  II  N    N   GGGG   !!!           |
|                                                                             |
|     For optimal performance we recommend to set                             |
|       NCORE = 2 up to number-of-cores-per-socket                            |
|     NCORE specifies how many cores store one orbital (NPAR=cpu/NCORE).      |
|     This setting can greatly improve the performance of VASP for DFT.       |
|     The default, NCORE=1 might be grossly inefficient on modern             |
|     multi-core architectures or massively parallel machines. Do your        |
|     own testing! More info at https://www.vasp.at/wiki/index.php/NCORE      |
|     Unfortunately you need to use the default for GW and RPA                |
|     calculations (for HF NCORE is supported but not extensively tested      |
|     yet).                                                                   |
|                                                                             |
 -----------------------------------------------------------------------------

 -----------------------------------------------------------------------------
|                                                                             |
|               ----> ADVICE to this user running VASP <----                  |
|                                                                             |
|     You have switched on vdW-DFT.                                           |
|     This routine was written and supplied by Jiri Klimes. We recommend      |
|     that you carefully read and cite the following publications:            |
|       J. Klimes, D.R. Bowler, A. Michelides                                 |
|          J. Phys.: Cond Matt. 22 022201 (2010)                              |
|       J. Klimes, D.R. Bowler, A. Michelides                                 |
|          Phys. Rev. B. 83, 195131 (2011)                                    |
|     and references therein.                                                 |
|                                                                             |
 -----------------------------------------------------------------------------

 POTCAR:    PAW_PBE C_h 06Feb2004                 
   VRHFIN =C: s2p2                                                                                  
   LEXCH  = PE                                                                                      
   EATOM  =   147.1560 eV,   10.8157 Ry                                                             
                                                                                                    
   TITEL  = PAW_PBE C_h 06Feb2004                                                                   
   LULTRA =        F    use ultrasoft PP ?                                                          
   IUNSCR =        1    unscreen: 0-lin 1-nonlin 2-no                                               
   RPACOR =    0.800    partial core radius                                                         
   POMASS =   12.011; ZVAL   =    4.000    mass and valenz                                          
   RCORE  =    1.100    outmost cutoff radius                                                       
   RWIGS  =    1.630; RWIGS  =    0.863    wigner-seitz radius (au A)                               
   ENMAX  =  700.000; ENMIN  =  500.000 eV                                                          
   ICORE  =        2    local potential                                                             
   LCOR   =        T    correct aug charges                                                         
   LPAW   =        T    paw PP                                                                      
   EAUG   =  946.768                                                                                
   DEXC   =    0.000                                                                                
   RMAX   =    1.128    core radius for proj-oper                                                   
   RAUG   =    1.300    factor for augmentation sphere                                              
   RDEP   =    1.162    radius for radial grids                                                     
   RDEPT  =    1.088    core radius for aug-charge                                                  
                                                                                                    
   Atomic configuration                                                                             
    4 entries                                                                                       
     n  l   j            E        occ.                                                              
     1  0  0.50      -273.3789   2.0000                                                             
     2  0  0.50       -13.7508   2.0000                                                             
     2  1  0.50        -5.2854   2.0000                                                             
     3  2  1.50        -5.4423   0.0000                                                             
   Description                                                                                      
     l       E           TYP  RCUT    TYP  RCUT                                                     
     0    -13.7508458     23  1.100                                                                 
     0     -8.2022199     23  1.100                                                                 
     1     -5.2854383     23  1.100                                                                 
     1      1.1560700     23  1.100                                                                 
     2     -5.4423304      7  1.100                                                                 
  local pseudopotential read in
  partial core-charges read in
  partial kinetic energy density read in
  atomic valenz-charges read in
  non local Contribution for L=           0  read in
    real space projection operators read in
  non local Contribution for L=           0  read in
    real space projection operators read in
  non local Contribution for L=           1  read in
    real space projection operators read in
  non local Contribution for L=           1  read in
    real space projection operators read in
    PAW grid and wavefunctions read in
 
   number of l-projection  operators is LMAX  =           4
   number of lm-projection operators is LMMAX =           8
 
 POTCAR:    PAW_PBE O_h 06Feb2004                 
   VRHFIN =O: s2p4                                                                                  
   LEXCH  = PE                                                                                      
   EATOM  =   432.3788 eV,   31.7789 Ry                                                             
                                                                                                    
   TITEL  = PAW_PBE O_h 06Feb2004                                                                   
   LULTRA =        F    use ultrasoft PP ?                                                          
   IUNSCR =        1    unscreen: 0-lin 1-nonlin 2-no                                               
   RPACOR =    0.800    partial core radius                                                         
   POMASS =   16.000; ZVAL   =    6.000    mass and valenz                                          
   RCORE  =    1.100    outmost cutoff radius                                                       
   RWIGS  =    1.400; RWIGS  =    0.741    wigner-seitz radius (au A)                               
   ENMAX  =  700.000; ENMIN  =  500.000 eV                                                          
   ICORE  =        2    local potential                                                             
   LCOR   =        T    correct aug charges                                                         
   LPAW   =        T    paw PP                                                                      
   EAUG   =  888.804                                                                                
   DEXC   =    0.000                                                                                
   RMAX   =    1.128    core radius for proj-oper                                                   
   RAUG   =    1.300    factor for augmentation sphere                                              
   RDEP   =    1.125    radius for radial grids                                                     
   RDEPT  =    1.088    core radius for aug-charge                                                  
                                                                                                    
   Atomic configuration                                                                             
    4 entries                                                                                       
     n  l   j            E        occ.                                                              
     1  0  0.50      -514.6923   2.0000                                                             
     2  0  0.50       -23.9615   2.0000                                                             
     2  1  0.50        -9.0305   4.0000                                                             
     3  2  1.50        -9.5241   0.0000                                                             
   Description                                                                                      
     l       E           TYP  RCUT    TYP  RCUT                                                     
     0    -23.9615319     23  1.100                                                                 
     0    -25.3221145     23  1.100                                                                 
     1     -9.0304911     23  1.100                                                                 
     1     -5.4802209     23  1.100                                                                 
     2     -9.5240782      7  1.100                                                                 
  local pseudopotential read in
  partial core-charges read in
  partial kinetic energy density read in
  atomic valenz-charges read in
  non local Contribution for L=           0  read in
    real space projection operators read in
  non local Contribution for L=           0  read in
    real space projection operators read in
  non local Contribution for L=           1  read in
    real space projection operators read in
  non local Contribution for L=           1  read in
    real space projection operators read in
    PAW grid and wavefunctions read in
 
   number of l-projection  operators is LMAX  =           4
   number of lm-projection operators is LMMAX =           8
 
 -----------------------------------------------------------------------------
|                                                                             |
|               ----> ADVICE to this user running VASP <----                  |
|                                                                             |
|     You have a (more or less) 'large supercell' and for larger cells it     |
|     might be more efficient to use real-space projection operators.         |
|     Therefore, try LREAL= Auto in the INCAR file.                           |
|     Mind: For very accurate calculation, you might also keep the            |
|     reciprocal projection scheme (i.e. LREAL=.FALSE.).                      |
|                                                                             |
 -----------------------------------------------------------------------------

 -----------------------------------------------------------------------------
|                                                                             |
|               ----> ADVICE to this user running VASP <----                  |
|                                                                             |
|     You enforced a specific xc type in the INCAR file but a different       |
|     type was found in the POTCAR file.                                      |
|     I HOPE YOU KNOW WHAT YOU ARE DOING!                                     |
|                                                                             |
 -----------------------------------------------------------------------------

  PAW_PBE C_h 06Feb2004                 :
 energy of atom  1       EATOM= -147.1560
 kinetic energy error for atom=    0.0031 (will be added to EATOM!!)
  PAW_PBE O_h 06Feb2004                 :
 energy of atom  2       EATOM= -432.3788
 kinetic energy error for atom=    0.0171 (will be added to EATOM!!)
 
 
 POSCAR:  C  O
  positions in cartesian coordinates
  No initial velocities read in
 exchange correlation table for  LEXCH =       44
   RHO(1)=    0.500       N(1)  =     2000
   RHO(2)=  100.500       N(2)  =     4000
 


--------------------------------------------------------------------------------------------------------


 ion  position               nearest neighbor table
   1  0.972  0.000  0.001-  50 1.42   2 1.42  42 1.42
   2  0.039  0.134  0.000-   5 1.42   7 1.42   1 1.42
   3  0.172  0.000  0.000-  42 1.42  44 1.42   4 1.42
   4  0.239  0.134  0.000-   7 1.42   3 1.42  23 1.42
   5  0.972  0.200  0.000-   6 1.42   2 1.42  34 1.42
   6  0.039  0.334  0.000-   5 1.42  21 1.42  11 1.42
   7  0.172  0.200  0.000-   8 1.42   2 1.42   4 1.42
   8  0.239  0.334  0.000-  13 1.42   7 1.42  21 1.42
   9  0.372  0.000  0.000-  10 1.42  44 1.42  46 1.42
  10  0.439  0.134  0.000-  27 1.42   9 1.42  23 1.42
  11  0.972  0.400  0.001-  12 1.42  36 1.42   6 1.42
  12  0.039  0.534  0.001-  25 1.42  11 1.42  17 1.42
  13  0.372  0.400  0.000-   8 1.42  14 1.42  24 1.42
  14  0.439  0.534  0.000-  13 1.42  29 1.42  19 1.42
  15  0.572  0.000  0.001-  46 1.42  16 1.42  48 1.42
  16  0.639  0.134  0.001-  15 1.42  35 1.42  27 1.42
  17  0.972  0.600  0.001-  38 1.42  18 1.42  12 1.42
  18  0.039  0.734  0.001-  43 1.42  41 1.42  17 1.42
  19  0.572  0.600  0.000-  14 1.42  20 1.42  32 1.42
  20  0.639  0.734  0.001-  49 1.42  19 1.42  47 1.42
  21  0.172  0.400  0.000-  22 1.42   8 1.42   6 1.42
  22  0.239  0.534  0.000-  21 1.42  29 1.42  25 1.42
  23  0.372  0.200  0.000-  10 1.42   4 1.42  24 1.42
  24  0.439  0.334  0.000-  13 1.42  31 1.42  23 1.42
  25  0.172  0.600  0.001-  26 1.42  12 1.42  22 1.42
  26  0.239  0.734  0.001-  25 1.42  45 1.42  43 1.42
  27  0.572  0.200  0.000-  10 1.42  28 1.42  16 1.42
  28  0.639  0.334  0.000-  27 1.42  37 1.42  31 1.42
  29  0.372  0.600  0.000-  22 1.42  14 1.42  30 1.42
  30  0.439  0.734  0.000-  47 1.42  29 1.42  45 1.42
  31  0.572  0.400  0.000-  32 1.42  28 1.42  24 1.42
  32  0.639  0.534  0.000-  31 1.42  39 1.42  19 1.42
  33  0.772  0.000  0.001-  34 1.42  48 1.42  50 1.42
  34  0.839  0.134  0.001-  33 1.42   5 1.42  35 1.42
  35  0.772  0.200  0.001-  36 1.42  16 1.42  34 1.42
  36  0.839  0.334  0.001-  35 1.42  11 1.42  37 1.42
  37  0.772  0.400  0.001-  28 1.42  38 1.42  36 1.42
  38  0.839  0.534  0.001-  17 1.42  37 1.42  39 1.42
  39  0.772  0.600  0.001-  40 1.42  38 1.42  32 1.42
  40  0.839  0.734  0.001-  39 1.42  49 1.42  41 1.42
  41  0.972  0.800  0.001-  18 1.42  42 1.42  40 1.42
  42  0.039  0.934  0.001-   3 1.42  41 1.42   1 1.42
  43  0.172  0.800  0.001-  18 1.42  44 1.42  26 1.42
  44  0.239  0.934  0.001-   9 1.42  43 1.42   3 1.42
  45  0.372  0.800  0.001-  26 1.42  46 1.42  30 1.42
  46  0.439  0.934  0.001-  15 1.42  45 1.42   9 1.42
  47  0.572  0.800  0.001-  30 1.42  48 1.42  20 1.42
  48  0.639  0.934  0.001-  47 1.42  33 1.42  15 1.42
  49  0.772  0.800  0.001-  50 1.42  20 1.42  40 1.42
  50  0.839  0.934  0.001-  49 1.42   1 1.42  33 1.42
  51  0.373  0.251  0.238-  52 1.18  53 1.18
  52  0.421  0.189  0.240-  51 1.18
  53  0.325  0.313  0.235-  51 1.18
 
  LATTYP: Found a hexagonal cell.
 ALAT       =    12.3250000000
 C/A-ratio  =     2.0283975659
  
  Lattice vectors:
  
 A1 = (  12.3250000000,   0.0000000000,   0.0000000000)
 A2 = (  -6.1625000000,  10.6737631016,   0.0000000000)
 A3 = (   0.0000000000,   0.0000000000,  25.0000000000)


Analysis of symmetry for initial positions (statically):
=====================================================================
 Subroutine PRICEL returns:
 Original cell was already a primitive cell.
 

 Routine SETGRP: Setting up the symmetry group for a 
 hexagonal supercell.


 Subroutine GETGRP returns: Found  1 space group operations
 (whereof  1 operations were pure point group operations)
 out of a pool of 24 trial point group operations.


The static configuration has the point symmetry C_1 .


Analysis of symmetry for dynamics (positions and initial velocities):
=====================================================================
 Subroutine PRICEL returns:
 Original cell was already a primitive cell.
 

 Routine SETGRP: Setting up the symmetry group for a 
 hexagonal supercell.


 Subroutine GETGRP returns: Found  1 space group operations
 (whereof  1 operations were pure point group operations)
 out of a pool of 24 trial point group operations.


The dynamic configuration has the point symmetry C_1 .


 Subroutine INISYM returns: Found  1 space group operations
 (whereof  1 operations are pure point group operations),
 and found     1 'primitive' translations


----------------------------------------------------------------------------------------

                                     Primitive cell                                     

  volume of cell :    3288.8533

  direct lattice vectors                    reciprocal lattice vectors
    12.325000000  0.000000000  0.000000000     0.081135903  0.046843835  0.000000000
    -6.162500000 10.673763102  0.000000000     0.000000000  0.093687670  0.000000000
     0.000000000  0.000000000 25.000000000     0.000000000  0.000000000  0.040000000

  length of vectors
    12.325000000 12.325000000 25.000000000     0.093687670  0.093687670  0.040000000

  position of ions in fractional coordinates (direct lattice)
     0.972450841  0.000320818  0.000566711
     0.039118382  0.133659505  0.000440173
     0.172443627  0.000295449  0.000499628
     0.239096278  0.133647917  0.000256468
     0.972452058  0.200322012  0.000485219
     0.039128360  0.333643771  0.000444150
     0.172451764  0.200354552  0.000219167
     0.239124359  0.333665720  0.000072260
     0.372465565  0.000324403  0.000453913
     0.439137473  0.133619939  0.000258338
     0.972449824  0.400309362  0.000547611
     0.039124981  0.533636789  0.000573410
     0.372416176  0.400329481  0.000000000
     0.439099602  0.533638981  0.000232414
     0.572443676  0.000312125  0.000559580
     0.639110207  0.133631751  0.000547275
     0.972452703  0.600305653  0.000640289
     0.039124495  0.733640359  0.000654513
     0.572433471  0.600306242  0.000402895
     0.639111888  0.733641879  0.000527905
     0.172454630  0.400318228  0.000289045
     0.239120185  0.533636548  0.000378509
     0.372459750  0.200295993  0.000088997
     0.439107096  0.333673419  0.000055762
     0.172452155  0.600311506  0.000524340
     0.239123371  0.733638574  0.000575129
     0.572431082  0.200289171  0.000413296
     0.639112773  0.333618630  0.000462376
     0.372439808  0.600308022  0.000362844
     0.439116090  0.733637858  0.000494190
     0.572469358  0.400320504  0.000339918
     0.639119408  0.533650873  0.000459610
     0.772445723  0.000315427  0.000596161
     0.839116277  0.133640203  0.000575306
     0.772440513  0.200307432  0.000581033
     0.839120241  0.333635728  0.000585467
     0.772446320  0.400298367  0.000582978
     0.839118980  0.533633964  0.000621100
     0.772456143  0.600308173  0.000595712
     0.839115033  0.733643180  0.000631512
     0.972455313  0.800305582  0.000652233
     0.039114714  0.933643289  0.000598051
     0.172457971  0.800312211  0.000623372
     0.239134551  0.933647193  0.000544850
     0.372451396  0.800316674  0.000551399
     0.439124489  0.933644769  0.000541430
     0.572441101  0.800310054  0.000534535
     0.639115067  0.933638985  0.000587644
     0.772445098  0.800313187  0.000602062
     0.839116614  0.933644338  0.000606830
     0.373021009  0.251226878  0.237841423
     0.420879805  0.189313152  0.240418298
     0.325156981  0.313167186  0.235463228

  ion indices of the primitive-cell ions
   primitive index   ion index
                 1           1
                 2           2
                 3           3
                 4           4
                 5           5
                 6           6
                 7           7
                 8           8
                 9           9
                10          10
                11          11
                12          12
                13          13
                14          14
                15          15
                16          16
                17          17
                18          18
                19          19
                20          20
                21          21
                22          22
                23          23
                24          24
                25          25
                26          26
                27          27
                28          28
                29          29
                30          30
                31          31
                32          32
                33          33
                34          34
                35          35
                36          36
                37          37
                38          38
                39          39
                40          40
                41          41
                42          42
                43          43
                44          44
                45          45
                46          46
                47          47
                48          48
                49          49
                50          50
                51          51
                52          52
                53          53

----------------------------------------------------------------------------------------

 
 
 KPOINTS: auto                                    

Automatic generation of k-mesh.
 Grid dimensions read from file:
 generate k-points for:    1    1    1

 Generating k-lattice:

  Cartesian coordinates                     Fractional coordinates (reciprocal lattice)
     0.081135903  0.046843835  0.000000000     1.000000000 -0.000000000  0.000000000
     0.000000000  0.093687670  0.000000000     0.000000000  1.000000000  0.000000000
     0.000000000  0.000000000  0.040000000     0.000000000  0.000000000  1.000000000

  Length of vectors
     0.093687670  0.093687670  0.040000000

  Shift w.r.t. Gamma in fractional coordinates (k-lattice)
     0.000000000  0.000000000  0.000000000

 
 Subroutine IBZKPT returns following result:
 ===========================================
 
 Found      1 irreducible k-points:
 
 Following reciprocal coordinates:
            Coordinates               Weight
  0.000000  0.000000  0.000000      1.000000
 
 Following cartesian coordinates:
            Coordinates               Weight
  0.000000  0.000000  0.000000      1.000000
 


--------------------------------------------------------------------------------------------------------




 Dimension of arrays:
   k-points           NKPTS =      1   k-points in BZ     NKDIM =      1   number of bands    NBANDS=    136
   number of dos      NEDOS =    301   number of ions     NIONS =     53
   non local maximal  LDIM  =      4   non local SUM 2l+1 LMDIM =      8
   total plane-waves  NPLWV = ******
   max r-space proj   IRMAX =      1   max aug-charges    IRDMAX=  10008
   dimension x,y,z NGX =   128 NGY =  128 NGZ =  270
   dimension x,y,z NGXF=   256 NGYF=  256 NGZF=  540
   support grid    NGXF=   256 NGYF=  256 NGZF=  540
   ions per type =              51   2
   NGX,Y,Z   is equivalent  to a cutoff of  17.27, 17.27, 17.95 a.u.
   NGXF,Y,Z  is equivalent  to a cutoff of  34.53, 34.53, 35.91 a.u.

 SYSTEM =  unknown system                          
 POSCAR =   C  O                                   

 Startparameter for this run:
   NWRITE =      2    write-flag & timer
   PREC   = accura    normal or accurate (medium, high low for compatibility)
   ISTART =      0    job   : 0-new  1-cont  2-samecut
   ICHARG =      2    charge: 1-file 2-atom 10-const
   ISPIN  =      1    spin polarized calculation?
   LNONCOLLINEAR =      F non collinear calculations
   LSORBIT =      F    spin-orbit coupling
   INIWAV =      1    electr: 0-lowe 1-rand  2-diag
   LASPH  =      T    aspherical Exc in radial PAW
 Electronic Relaxation 1
   ENCUT  = 1000.0 eV  73.50 Ry    8.57 a.u.  31.78 31.78 64.46*2*pi/ulx,y,z
   ENINI  = 1000.0     initial cutoff
   ENAUG  =  946.8 eV  augmentation charge cutoff
   NELM   =     60;   NELMIN=  2; NELMDL= -5     # of ELM steps 
   EDIFF  = 0.1E-06   stopping-criterion for ELM
   LREAL  =      F    real-space projection
   NLSPLINE    = F    spline interpolate recip. space projectors
   LCOMPAT=      F    compatible to vasp.4.4
   GGA_COMPAT  = T    GGA compatible to vasp.4.4-vasp.4.6
   LMAXPAW     = -100 max onsite density
   LMAXMIX     =    2 max onsite mixed and CHGCAR
   VOSKOWN=      0    Vosko Wilk Nusair interpolation
   ROPT   =    0.00000   0.00000
 Ionic relaxation
   EDIFFG = 0.1E-05   stopping-criterion for IOM
   NSW    =      0    number of steps for IOM
   NBLOCK =      1;   KBLOCK =      1    inner block; outer block 
   IBRION =     -1    ionic relax: 0-MD 1-quasi-New 2-CG
   NFREE  =      0    steps in history (QN), initial steepest desc. (CG)
   ISIF   =      0    stress and relaxation
   IWAVPR =     10    prediction:  0-non 1-charg 2-wave 3-comb
   ISYM   =      2    0-nonsym 1-usesym 2-fastsym
   LCORR  =      T    Harris-Foulkes like correction to forces

   POTIM  = 0.5000    time-step for ionic-motion
   TEIN   =    0.0    initial temperature
   TEBEG  =    0.0;   TEEND  =   0.0 temperature during run
   SMASS  =  -3.00    Nose mass-parameter (am)
   estimated Nose-frequenzy (Omega)   =  0.10E-29 period in steps = 0.13E+47 mass=  -0.347E-26a.u.
   SCALEE = 1.0000    scale energy and forces
   NPACO  =    256;   APACO  = 16.0  distance and # of slots for P.C.
   PSTRESS=    0.0 pullay stress

  Mass of Ions in am
   POMASS =  12.01 16.00
  Ionic Valenz
   ZVAL   =   4.00  6.00
  Atomic Wigner-Seitz radii
   RWIGS  =  -1.00 -1.00
  virtual crystal weights 
   VCA    =   1.00  1.00
   NELECT =     216.0000    total number of electrons
   NUPDOWN=      -1.0000    fix difference up-down

 DOS related values:
   EMIN   =  10.00;   EMAX   =-10.00  energy-range for DOS
   EFERMI =   0.00
   ISMEAR =     0;   SIGMA  =   0.01  broadening in eV -4-tet -1-fermi 0-gaus

 Electronic relaxation 2 (details)
   IALGO  =     58    algorithm
   LDIAG  =      T    sub-space diagonalisation (order eigenvalues)
   LSUBROT=      F    optimize rotation matrix (better conditioning)
   TURBO    =      0    0=normal 1=particle mesh
   IRESTART =      0    0=no restart 2=restart with 2 vectors
   NREBOOT  =      0    no. of reboots
   NMIN     =      0    reboot dimension
   EREF     =   0.00    reference energy to select bands
   IMIX   =      4    mixing-type and parameters
     AMIX     =   0.40;   BMIX     =  1.00
     AMIX_MAG =   1.60;   BMIX_MAG =  1.00
     AMIN     =   0.10
     WC   =   100.;   INIMIX=   1;  MIXPRE=   1;  MAXMIX= -45

 Intra band minimization:
   WEIMIN = 0.0000     energy-eigenvalue tresh-hold
   EBREAK =  0.18E-09  absolut break condition
   DEPER  =   0.30     relativ break condition  

   TIME   =   0.40     timestep for ELM

  volume/ion in A,a.u.               =      62.05       418.76
  Fermi-wavevector in a.u.,A,eV,Ry     =   0.660508  1.248179  5.935820  0.436270
  Thomas-Fermi vector in A             =   1.732977
 
 Write flags
   LWAVE        =      F    write WAVECAR
   LDOWNSAMPLE  =      F    k-point downsampling of WAVECAR
   LCHARG       =      T    write CHGCAR
   LVTOT        =      F    write LOCPOT, total local potential
   LVHAR        =      F    write LOCPOT, Hartree potential only
   LELF         =      F    write electronic localiz. function (ELF)
   LORBIT       =      0    0 simple, 1 ext, 2 COOP (PROOUT), +10 PAW based schemes


 Dipole corrections
   LMONO  =      F    monopole corrections only (constant potential shift)
   LDIPOL =      F    correct potential (dipole corrections)
   IDIPOL =      0    1-x, 2-y, 3-z, 4-all directions 
   EPSILON=  1.0000000 bulk dielectric constant

 Exchange correlation treatment:
   GGA     =    ML    GGA type
   LEXCH   =    44    internal setting for exchange type
   VOSKOWN=      0    Vosko Wilk Nusair interpolation
   LHFCALC =     F    Hartree Fock is set to
   LHFONE  =     F    Hartree Fock one center treatment
   AEXX    =    0.0000 exact exchange contribution

 vdW DFT:
   LUSE_VDW   =     T    switch on vdW DFT
   Zab_VDW    =******    correlation parameter
   PARAM1     =0.1234
   PARAM2     =1.0000
   PARAM3     =0.0000
   -- rVV10 --
   BPARAM     = 6.3000
   CPARAM     = 0.0093

 Linear response parameters
   LEPSILON=     F    determine dielectric tensor
   LRPA    =     F    only Hartree local field effects (RPA)
   LNABLA  =     F    use nabla operator in PAW spheres
   LVEL    =     F    velocity operator in full k-point grid
   LINTERFAST=   F  fast interpolation
   KINTER  =     0    interpolate to denser k-point grid
   CSHIFT  =0.1000    complex shift for real part using Kramers Kronig
   OMEGAMAX=  -1.0    maximum frequency
   DEG_THRESHOLD= 0.2000000E-02 threshold for treating states as degnerate
   RTIME   =   -0.100 relaxation time in fs
  (WPLASMAI=    0.000 imaginary part of plasma frequency in eV, 0.658/RTIME)
   DFIELD  = 0.0000000 0.0000000 0.0000000 field for delta impulse in time
 
 Orbital magnetization related:
   ORBITALMAG=     F  switch on orbital magnetization
   LCHIMAG   =     F  perturbation theory with respect to B field
   DQ        =  0.001000  dq finite difference perturbation B field
   LLRAUG    =     F  two centre corrections for induced B field



--------------------------------------------------------------------------------------------------------


 Static calculation
 charge density and potential will be updated during run
 non-spin polarized calculation
 Conjugate gradient for all bands (Freysoldt, et al. PRB 79, 241103 (2009))
 preconditioned conjugated gradient                                        
 perform sub-space diagonalisation
    before iterative eigenvector-optimisation
 modified Broyden-mixing scheme, WC =      100.0
 initial mixing is a Kerker type mixing with AMIX =  0.4000 and BMIX =      1.0000
 Hartree-type preconditioning will be used
 using additional bands           28
 reciprocal scheme for non local part
 use partial core corrections
 no Harris-corrections to forces 
 use gradient corrections 
 use of overlap-Matrix (Vanderbilt PP)
 Gauss-broadening in eV      SIGMA  =   0.01


--------------------------------------------------------------------------------------------------------


  energy-cutoff  :     1000.00
  volume of cell :     3288.85
      direct lattice vectors                 reciprocal lattice vectors
    12.325000000  0.000000000  0.000000000     0.081135903  0.046843835  0.000000000
    -6.162500000 10.673763102  0.000000000     0.000000000  0.093687670  0.000000000
     0.000000000  0.000000000 25.000000000     0.000000000  0.000000000  0.040000000

  length of vectors
    12.325000000 12.325000000 25.000000000     0.093687670  0.093687670  0.040000000


 
 k-points in units of 2pi/SCALE and weight: auto                                    
   0.00000000  0.00000000  0.00000000       1.000
 
 k-points in reciprocal lattice and weights: auto                                    
   0.00000000  0.00000000  0.00000000       1.000
 
 position of ions in fractional coordinates (direct lattice) 
   0.97245084  0.00032082  0.00056671
   0.03911838  0.13365950  0.00044017
   0.17244363  0.00029545  0.00049963
   0.23909628  0.13364792  0.00025647
   0.97245206  0.20032201  0.00048522
   0.03912836  0.33364377  0.00044415
   0.17245176  0.20035455  0.00021917
   0.23912436  0.33366572  0.00007226
   0.37246557  0.00032440  0.00045391
   0.43913747  0.13361994  0.00025834
   0.97244982  0.40030936  0.00054761
   0.03912498  0.53363679  0.00057341
   0.37241618  0.40032948  0.00000000
   0.43909960  0.53363898  0.00023241
   0.57244368  0.00031213  0.00055958
   0.63911021  0.13363175  0.00054727
   0.97245270  0.60030565  0.00064029
   0.03912449  0.73364036  0.00065451
   0.57243347  0.60030624  0.00040289
   0.63911189  0.73364188  0.00052791
   0.17245463  0.40031823  0.00028904
   0.23912018  0.53363655  0.00037851
   0.37245975  0.20029599  0.00008900
   0.43910710  0.33367342  0.00005576
   0.17245216  0.60031151  0.00052434
   0.23912337  0.73363857  0.00057513
   0.57243108  0.20028917  0.00041330
   0.63911277  0.33361863  0.00046238
   0.37243981  0.60030802  0.00036284
   0.43911609  0.73363786  0.00049419
   0.57246936  0.40032050  0.00033992
   0.63911941  0.53365087  0.00045961
   0.77244572  0.00031543  0.00059616
   0.83911628  0.13364020  0.00057531
   0.77244051  0.20030743  0.00058103
   0.83912024  0.33363573  0.00058547
   0.77244632  0.40029837  0.00058298
   0.83911898  0.53363396  0.00062110
   0.77245614  0.60030817  0.00059571
   0.83911503  0.73364318  0.00063151
   0.97245531  0.80030558  0.00065223
   0.03911471  0.93364329  0.00059805
   0.17245797  0.80031221  0.00062337
   0.23913455  0.93364719  0.00054485
   0.37245140  0.80031667  0.00055140
   0.43912449  0.93364477  0.00054143
   0.57244110  0.80031005  0.00053453
   0.63911507  0.93363899  0.00058764
   0.77244510  0.80031319  0.00060206
   0.83911661  0.93364434  0.00060683
   0.37302101  0.25122688  0.23784142
   0.42087980  0.18931315  0.24041830
   0.32515698  0.31316719  0.23546323
 
 position of ions in cartesian coordinates  (Angst):
  11.98347958  0.00342433  0.01416777
  -0.34154264  1.42664989  0.01100432
   2.12354700  0.00315355  0.01249070
   2.12325634  1.42652621  0.00641170
  10.75098721  2.13818970  0.01213047
  -1.57382270  3.56123457  0.01110375
   0.89078307  2.13853702  0.00547917
   0.89099273  3.56146885  0.00180651
   4.58863896  0.00346260  0.01134782
   4.58893648  1.42622757  0.00645846
   9.51853763  4.27280730  0.01369027
  -2.80632132  5.69591267  0.01433526
   2.12299894  4.27302204  0.00000000
   2.12335237  5.69593607  0.00581036
   7.05344483  0.00333155  0.01398950
   7.05352764  1.42635365  0.01368187
   8.28609598  6.40752033  0.01600723
  -4.03884931  7.83070339  0.01636283
   3.35585531  6.40752662  0.01007237
   3.35598594  7.83071962  0.01319763
  -0.34145776  4.27290193  0.00722612
  -0.34137895  5.69591010  0.00946273
   3.35624236  2.13791198  0.00222492
   3.35573251  3.56155103  0.00139405
  -1.57394684  6.40758280  0.01310850
  -1.57385216  7.83068434  0.01437823
   5.82093107  2.13783916  0.01033241
   5.82114012  3.56096622  0.01155939
   0.89092245  6.40754561  0.00907111
   0.89106251  7.83067670  0.01235474
   4.58870974  4.27292622  0.00849795
   4.58852320  5.69606300  0.01149026
   9.51844972  0.00336679  0.01490402
   9.51855036  1.42644387  0.01438264
   8.28593477  2.13803408  0.01452582
   8.28612680  3.56114872  0.01463668
   7.05356221  4.27268994  0.01457444
   7.05362213  5.69588251  0.01552751
   5.82112285  6.40754723  0.01489279
   5.82101669  7.83073350  0.01578780
   7.05362858  8.54227219  0.01630582
  -5.27148792  9.96548729  0.01495127
  -2.80637951  8.54234295  0.01558431
  -2.80626749  9.96552896  0.01362126
  -0.34148805  8.54239058  0.01378498
  -0.34137657  9.96550309  0.01353576
   2.12342586  8.54231992  0.01336337
   2.12354296  9.96544135  0.01469111
   4.58845581  8.54235337  0.01505154
   4.58852904  9.96549848  0.01517076
   3.04929830  2.68153618  5.94603558
   4.02070129  2.02068374  6.01045744
   2.07766701  3.34267235  5.88658071
 


--------------------------------------------------------------------------------------------------------


 k-point   1 :   0.0000 0.0000 0.0000  plane waves:  236157

 maximum and minimum number of plane-waves per node :      8440     8428

 maximum number of plane-waves:    236157
 maximum index in each direction: 
   IXMAX=   31   IYMAX=   31   IZMAX=   64
   IXMIN=  -31   IYMIN=  -31   IZMIN=  -64


 parallel 3D FFT for wavefunctions:
    minimum data exchange during FFTs selected (reduces bandwidth)
 parallel 3D FFT for charge:
    minimum data exchange during FFTs selected (reduces bandwidth)


 total amount of memory used by VASP MPI-rank0   100580. kBytes
=======================================================================

   base      :      30000. kBytes
   nonl-proj :       8229. kBytes
   fftplans  :      18352. kBytes
   grid      :      30208. kBytes
   one-center:          6. kBytes
   wavefun   :      13785. kBytes
 
     INWAV:  cpu time    0.0000: real time    0.0000
 Broyden mixing: mesh for mixing (old mesh)
   NGX = 63   NGY = 63   NGZ =129
  (NGX  =256   NGY  =256   NGZ  =540)
  gives a total of 512001 points

 initial charge density was supplied:
 charge density of overlapping atoms calculated
 number of electron     216.0000000 magnetization 
 keeping initial charge density in first step


--------------------------------------------------------------------------------------------------------


 Maximum index for augmentation-charges          471 (set IRDMAX)


--------------------------------------------------------------------------------------------------------


 First call to EWALD:  gamma=   0.119
 Maximum number of real-space cells 4x 4x 2
 Maximum number of reciprocal cells 2x 2x 4

    FEWALD:  cpu time    0.0025: real time    0.0025


--------------------------------------- Iteration      1(   1)  ---------------------------------------


vdW kernel read from vdw_kernel.bindat
  0.0000  0.2424  0.5071  0.7962  1.1119  1.4567  1.8333  2.2446  2.6937  3.1842
  3.7199  4.3049  4.9438  5.6415  6.4036  7.2358  8.1446  9.1372 10.2212 11.4050
 12.6979 14.1099 15.6519 17.3360 19.1751 21.1837 23.3773 25.7729 28.3892 31.2465
 34.3669 37.7748 41.4965 45.5611 50.0000
 
    POTLOK:  cpu time    4.5576: real time    4.6062
    SETDIJ:  cpu time    0.0544: real time    0.0547
    TRIAL :  cpu time    2.1360: real time    2.1660
    CORREC:  cpu time    0.0003: real time    0.0005
    --------------------------------------------
      LOOP:  cpu time    6.7517: real time    6.8432

 eigenvalue-minimisations  :   288
 total energy-change (2. order) : 0.2820188E+04  (-0.1021144E+05)
 number of electron     216.0000000 magnetization 
 augmentation part      216.0000000 magnetization 

 Free energy of the ion-electron system (eV)
  ---------------------------------------------------
  alpha Z        PSCENC =        47.94900195
  Ewald energy   TEWEN  =     43620.90154586
  -Hartree energ DENC   =    -49690.08595189
  -exchange      EXHF   =         0.00000000
  -V(xc)+E(xc)   XCENC  =       352.73039831
  PAW double counting   =      6601.42964284    -6299.49404826
  entropy T*S    EENTRO =        -0.00000000
  eigenvalues    EBANDS =      -370.65500583
  atomic energy  EATOM  =      8557.41276814
  ---------------------------------------------------
  free energy    TOTEN  =      2820.18835111 eV

  energy without entropy =     2820.18835111  energy(sigma->0) =     2820.18835111


--------------------------------------------------------------------------------------------------------




--------------------------------------- Iteration      1(   2)  ---------------------------------------


    TRIAL :  cpu time    2.8866: real time    2.9131
    CORREC:  cpu time    0.0001: real time    0.0002
    --------------------------------------------
      LOOP:  cpu time    2.9222: real time    2.9546

 eigenvalue-minimisations  :   448
 total energy-change (2. order) :-0.2331961E+04  (-0.2183372E+04)
 number of electron     216.0000000 magnetization 
 augmentation part      216.0000000 magnetization 

 Free energy of the ion-electron system (eV)
  ---------------------------------------------------
  alpha Z        PSCENC =        47.94900195
  Ewald energy   TEWEN  =     43620.90154586
  -Hartree energ DENC   =    -49690.08595189
  -exchange      EXHF   =         0.00000000
  -V(xc)+E(xc)   XCENC  =       352.73039831
  PAW double counting   =      6601.42964284    -6299.49404826
  entropy T*S    EENTRO =        -0.00000000
  eigenvalues    EBANDS =     -2702.61591031
  atomic energy  EATOM  =      8557.41276814
  ---------------------------------------------------
  free energy    TOTEN  =       488.22744663 eV

  energy without entropy =      488.22744663  energy(sigma->0) =      488.22744663


--------------------------------------------------------------------------------------------------------




--------------------------------------- Iteration      1(   3)  ---------------------------------------


    TRIAL :  cpu time    2.3094: real time    2.3298
    CORREC:  cpu time    0.0001: real time    0.0001
    --------------------------------------------
      LOOP:  cpu time    2.3588: real time    2.3827

 eigenvalue-minimisations  :   336
 total energy-change (2. order) :-0.8364433E+03  (-0.8221815E+03)
 number of electron     216.0000000 magnetization 
 augmentation part      216.0000000 magnetization 

 Free energy of the ion-electron system (eV)
  ---------------------------------------------------
  alpha Z        PSCENC =        47.94900195
  Ewald energy   TEWEN  =     43620.90154586
  -Hartree energ DENC   =    -49690.08595189
  -exchange      EXHF   =         0.00000000
  -V(xc)+E(xc)   XCENC  =       352.73039831
  PAW double counting   =      6601.42964284    -6299.49404826
  entropy T*S    EENTRO =        -0.00000000
  eigenvalues    EBANDS =     -3539.05922890
  atomic energy  EATOM  =      8557.41276814
  ---------------------------------------------------
  free energy    TOTEN  =      -348.21587196 eV

  energy without entropy =     -348.21587196  energy(sigma->0) =     -348.21587196


--------------------------------------------------------------------------------------------------------




--------------------------------------- Iteration      1(   4)  ---------------------------------------


    TRIAL :  cpu time    2.3089: real time    2.3289
    CORREC:  cpu time    0.0001: real time    0.0001
    --------------------------------------------
      LOOP:  cpu time    2.3414: real time    2.3693

 eigenvalue-minimisations  :   336
 total energy-change (2. order) :-0.8162291E+02  (-0.8041946E+02)
 number of electron     216.0000000 magnetization 
 augmentation part      216.0000000 magnetization 

 Free energy of the ion-electron system (eV)
  ---------------------------------------------------
  alpha Z        PSCENC =        47.94900195
  Ewald energy   TEWEN  =     43620.90154586
  -Hartree energ DENC   =    -49690.08595189
  -exchange      EXHF   =         0.00000000
  -V(xc)+E(xc)   XCENC  =       352.73039831
  PAW double counting   =      6601.42964284    -6299.49404826
  entropy T*S    EENTRO =        -0.00000000
  eigenvalues    EBANDS =     -3620.68213943
  atomic energy  EATOM  =      8557.41276814
  ---------------------------------------------------
  free energy    TOTEN  =      -429.83878249 eV

  energy without entropy =     -429.83878249  energy(sigma->0) =     -429.83878249


--------------------------------------------------------------------------------------------------------




--------------------------------------- Iteration      1(   5)  ---------------------------------------


    TRIAL :  cpu time    2.4327: real time    2.4539
    CORREC:  cpu time    0.0001: real time    0.0001
    CHARGE:  cpu time    0.1805: real time    0.1829
    --------------------------------------------
      LOOP:  cpu time    2.6232: real time    2.6666

 eigenvalue-minimisations  :   360
 total energy-change (2. order) :-0.2427557E+01  (-0.2408670E+01)
 number of electron     216.0000000 magnetization 
 augmentation part       -0.1482540 magnetization 

 Free energy of the ion-electron system (eV)
  ---------------------------------------------------
  alpha Z        PSCENC =        47.94900195
  Ewald energy   TEWEN  =     43620.90154586
  -Hartree energ DENC   =    -49690.08595189
  -exchange      EXHF   =         0.00000000
  -V(xc)+E(xc)   XCENC  =       352.73039831
  PAW double counting   =      6601.42964284    -6299.49404826
  entropy T*S    EENTRO =        -0.00000000
  eigenvalues    EBANDS =     -3623.10969598
  atomic energy  EATOM  =      8557.41276814
  ---------------------------------------------------
  free energy    TOTEN  =      -432.26633904 eV

  energy without entropy =     -432.26633904  energy(sigma->0) =     -432.26633904


--------------------------------------------------------------------------------------------------------




--------------------------------------- Iteration      1(   6)  ---------------------------------------


    POTLOK:  cpu time    4.2496: real time    4.2805
    SETDIJ:  cpu time    0.0529: real time    0.0530
    TRIAL :  cpu time    1.1690: real time    1.1798
    CORREC:  cpu time    4.7306: real time    4.7666
    CHARGE:  cpu time    0.1807: real time    0.1824
    --------------------------------------------
      LOOP:  cpu time   10.4550: real time   10.5370

 eigenvalue-minimisations  :     0
 total energy-change (2. order) : 0.6359976E+02  (-0.2156377E+02)
 number of electron     216.0000000 magnetization 
 augmentation part       -0.2782261 magnetization 

 Free energy of the ion-electron system (eV)
  ---------------------------------------------------
  alpha Z        PSCENC =        47.94900195
  Ewald energy   TEWEN  =     43620.90154586
  -Hartree energ DENC   =    -51254.72824028
  -exchange      EXHF   =         0.00000000
  -V(xc)+E(xc)   XCENC  =       408.14476463
  PAW double counting   =     52919.25987314   -52641.40508471
  entropy T*S    EENTRO =        -0.00000000
  eigenvalues    EBANDS =     -2026.20120708
  atomic energy  EATOM  =      8557.41276814
  ---------------------------------------------------
  free energy    TOTEN  =      -368.66657834 eV

  energy without entropy =     -368.66657834  energy(sigma->0) =     -368.66657834


--------------------------------------------------------------------------------------------------------




--------------------------------------- Iteration      1(   7)  ---------------------------------------


    POTLOK:  cpu time    4.2498: real time    4.2807
    SETDIJ:  cpu time    0.0526: real time    0.0528
    TRIAL :  cpu time    1.1660: real time    1.1768
    CORREC:  cpu time    4.7666: real time    4.8207
    CHARGE:  cpu time    0.1802: real time    0.1827
    --------------------------------------------
      LOOP:  cpu time   10.5294: real time   10.6296

 eigenvalue-minimisations  :     0
 total energy-change (2. order) :-0.2167548E+02  (-0.2222569E+01)
 number of electron     216.0000000 magnetization 
 augmentation part       -0.3311499 magnetization 

 Free energy of the ion-electron system (eV)
  ---------------------------------------------------
  alpha Z        PSCENC =        47.94900195
  Ewald energy   TEWEN  =     43620.90154586
  -Hartree energ DENC   =    -50655.88769486
  -exchange      EXHF   =         0.00000000
  -V(xc)+E(xc)   XCENC  =       385.71634110
  PAW double counting   =     68667.36643868   -68382.50153507
  entropy T*S    EENTRO =        -0.00000000
  eigenvalues    EBANDS =     -2631.29891979
  atomic energy  EATOM  =      8557.41276814
  ---------------------------------------------------
  free energy    TOTEN  =      -390.34205398 eV

  energy without entropy =     -390.34205398  energy(sigma->0) =     -390.34205398


--------------------------------------------------------------------------------------------------------




--------------------------------------- Iteration      1(   8)  ---------------------------------------


    POTLOK:  cpu time    4.2583: real time    4.2885
    SETDIJ:  cpu time    0.0528: real time    0.0530
    TRIAL :  cpu time    1.1681: real time    1.1788
    CORREC:  cpu time    4.7395: real time    4.7750
    CHARGE:  cpu time    0.1816: real time    0.1834
    --------------------------------------------
      LOOP:  cpu time   10.4405: real time   10.5205

 eigenvalue-minimisations  :     0
 total energy-change (2. order) :-0.2219001E+01  (-0.6307037E+00)
 number of electron     216.0000000 magnetization 
 augmentation part       -0.3543843 magnetization 

 Free energy of the ion-electron system (eV)
  ---------------------------------------------------
  alpha Z        PSCENC =        47.94900195
  Ewald energy   TEWEN  =     43620.90154586
  -Hartree energ DENC   =    -50625.39697958
  -exchange      EXHF   =         0.00000000
  -V(xc)+E(xc)   XCENC  =       385.15225595
  PAW double counting   =     73911.06274512   -73625.05795606
  entropy T*S    EENTRO =        -0.00000000
  eigenvalues    EBANDS =     -2664.58443620
  atomic energy  EATOM  =      8557.41276814
  ---------------------------------------------------
  free energy    TOTEN  =      -392.56105481 eV

  energy without entropy =     -392.56105481  energy(sigma->0) =     -392.56105481


--------------------------------------------------------------------------------------------------------




--------------------------------------- Iteration      1(   9)  ---------------------------------------


    POTLOK:  cpu time    4.2745: real time    4.3059
    SETDIJ:  cpu time    0.0528: real time    0.0530
    TRIAL :  cpu time    1.1600: real time    1.1727
    CORREC:  cpu time    4.7284: real time    4.7664
    CHARGE:  cpu time    0.1802: real time    0.1819
    --------------------------------------------
      LOOP:  cpu time   10.4481: real time   10.5621

 eigenvalue-minimisations  :     0
 total energy-change (2. order) :-0.6309248E+00  (-0.2497982E+00)
 number of electron     216.0000000 magnetization 
 augmentation part       -0.3636441 magnetization 

 Free energy of the ion-electron system (eV)
  ---------------------------------------------------
  alpha Z        PSCENC =        47.94900195
  Ewald energy   TEWEN  =     43620.90154586
  -Hartree energ DENC   =    -50641.18093340
  -exchange      EXHF   =         0.00000000
  -V(xc)+E(xc)   XCENC  =       385.61119149
  PAW double counting   =     78323.85066480   -78037.37500854
  entropy T*S    EENTRO =        -0.00000000
  eigenvalues    EBANDS =     -2650.36120991
  atomic energy  EATOM  =      8557.41276814
  ---------------------------------------------------
  free energy    TOTEN  =      -393.19197961 eV

  energy without entropy =     -393.19197961  energy(sigma->0) =     -393.19197961


--------------------------------------------------------------------------------------------------------




--------------------------------------- Iteration      1(  10)  ---------------------------------------


    POTLOK:  cpu time    4.2679: real time    4.3005
    SETDIJ:  cpu time    0.0528: real time    0.0530
    TRIAL :  cpu time    1.1879: real time    1.2005
    CORREC:  cpu time    4.7472: real time    4.7876
    CHARGE:  cpu time    0.1814: real time    0.1832
    --------------------------------------------
      LOOP:  cpu time   10.4962: real time   10.5872

 eigenvalue-minimisations  :     0
 total energy-change (2. order) :-0.2490295E+00  (-0.1153696E+00)
 number of electron     216.0000000 magnetization 
 augmentation part       -0.3604546 magnetization 

 Free energy of the ion-electron system (eV)
  ---------------------------------------------------
  alpha Z        PSCENC =        47.94900195
  Ewald energy   TEWEN  =     43620.90154586
  -Hartree energ DENC   =    -50636.87094912
  -exchange      EXHF   =         0.00000000
  -V(xc)+E(xc)   XCENC  =       385.54049678
  PAW double counting   =     80230.31619517   -79943.52806608
  entropy T*S    EENTRO =        -0.00000000
  eigenvalues    EBANDS =     -2655.16200182
  atomic energy  EATOM  =      8557.41276814
  ---------------------------------------------------
  free energy    TOTEN  =      -393.44100912 eV

  energy without entropy =     -393.44100912  energy(sigma->0) =     -393.44100912


--------------------------------------------------------------------------------------------------------




--------------------------------------- Iteration      1(  11)  ---------------------------------------


    POTLOK:  cpu time    4.2677: real time    4.2970
    SETDIJ:  cpu time    0.0529: real time    0.0530
    TRIAL :  cpu time    1.1608: real time    1.1727
    CORREC:  cpu time    4.7409: real time    4.7756
    CHARGE:  cpu time    0.1801: real time    0.1818
    --------------------------------------------
      LOOP:  cpu time   10.4410: real time   10.5374

 eigenvalue-minimisations  :     0
 total energy-change (2. order) :-0.1148205E+00  (-0.4672936E-01)
 number of electron     216.0000000 magnetization 
 augmentation part       -0.3571854 magnetization 

 Free energy of the ion-electron system (eV)
  ---------------------------------------------------
  alpha Z        PSCENC =        47.94900195
  Ewald energy   TEWEN  =     43620.90154586
  -Hartree energ DENC   =    -50628.53056932
  -exchange      EXHF   =         0.00000000
  -V(xc)+E(xc)   XCENC  =       385.45748797
  PAW double counting   =     80308.37661805   -80021.52576343
  entropy T*S    EENTRO =        -0.00000000
  eigenvalues    EBANDS =     -2663.59691885
  atomic energy  EATOM  =      8557.41276814
  ---------------------------------------------------
  free energy    TOTEN  =      -393.55582962 eV

  energy without entropy =     -393.55582962  energy(sigma->0) =     -393.55582962


--------------------------------------------------------------------------------------------------------




--------------------------------------- Iteration      1(  12)  ---------------------------------------


    POTLOK:  cpu time    4.2586: real time    4.2900
    SETDIJ:  cpu time    0.0528: real time    0.0530
    TRIAL :  cpu time    1.1591: real time    1.1716
    CORREC:  cpu time    4.7293: real time    4.7682
    CHARGE:  cpu time    0.1813: real time    0.1831
    --------------------------------------------
      LOOP:  cpu time   10.4407: real time   10.5296

 eigenvalue-minimisations  :     0
 total energy-change (2. order) :-0.4657449E-01  (-0.1462102E-01)
 number of electron     216.0000000 magnetization 
 augmentation part       -0.3563237 magnetization 

 Free energy of the ion-electron system (eV)
  ---------------------------------------------------
  alpha Z        PSCENC =        47.94900195
  Ewald energy   TEWEN  =     43620.90154586
  -Hartree energ DENC   =    -50624.95279433
  -exchange      EXHF   =         0.00000000
  -V(xc)+E(xc)   XCENC  =       385.36172085
  PAW double counting   =     79773.73114799   -79486.94363529
  entropy T*S    EENTRO =        -0.00000000
  eigenvalues    EBANDS =     -2667.06215928
  atomic energy  EATOM  =      8557.41276814
  ---------------------------------------------------
  free energy    TOTEN  =      -393.60240411 eV

  energy without entropy =     -393.60240411  energy(sigma->0) =     -393.60240411


--------------------------------------------------------------------------------------------------------




--------------------------------------- Iteration      1(  13)  ---------------------------------------


    POTLOK:  cpu time    4.2752: real time    4.3067
    SETDIJ:  cpu time    0.0528: real time    0.0530
    TRIAL :  cpu time    1.1789: real time    1.2054
    CORREC:  cpu time    4.7578: real time    4.7944
    CHARGE:  cpu time    0.1804: real time    0.1823
    --------------------------------------------
      LOOP:  cpu time   10.4789: real time   10.6017

 eigenvalue-minimisations  :     0
 total energy-change (2. order) :-0.1460761E-01  (-0.4280055E-02)
 number of electron     216.0000000 magnetization 
 augmentation part       -0.3559596 magnetization 

 Free energy of the ion-electron system (eV)
  ---------------------------------------------------
  alpha Z        PSCENC =        47.94900195
  Ewald energy   TEWEN  =     43620.90154586
  -Hartree energ DENC   =    -50624.91208193
  -exchange      EXHF   =         0.00000000
  -V(xc)+E(xc)   XCENC  =       385.32727364
  PAW double counting   =     79308.53292490   -79021.80963163
  entropy T*S    EENTRO =        -0.00000000
  eigenvalues    EBANDS =     -2667.01881264
  atomic energy  EATOM  =      8557.41276814
  ---------------------------------------------------
  free energy    TOTEN  =      -393.61701172 eV

  energy without entropy =     -393.61701172  energy(sigma->0) =     -393.61701172


--------------------------------------------------------------------------------------------------------




--------------------------------------- Iteration      1(  14)  ---------------------------------------


    POTLOK:  cpu time    4.2628: real time    4.2941
    SETDIJ:  cpu time    0.0527: real time    0.0529
    TRIAL :  cpu time    1.1625: real time    1.1735
    CORREC:  cpu time    4.7459: real time    4.7835
    CHARGE:  cpu time    0.1804: real time    0.1821
    --------------------------------------------
      LOOP:  cpu time   10.4611: real time   10.5460

 eigenvalue-minimisations  :     0
 total energy-change (2. order) :-0.4278523E-02  (-0.1520629E-02)
 number of electron     216.0000000 magnetization 
 augmentation part       -0.3562654 magnetization 

 Free energy of the ion-electron system (eV)
  ---------------------------------------------------
  alpha Z        PSCENC =        47.94900195
  Ewald energy   TEWEN  =     43620.90154586
  -Hartree energ DENC   =    -50624.88792702
  -exchange      EXHF   =         0.00000000
  -V(xc)+E(xc)   XCENC  =       385.30545554
  PAW double counting   =     79120.80411312   -78834.11131750
  entropy T*S    EENTRO =        -0.00000000
  eigenvalues    EBANDS =     -2666.99493033
  atomic energy  EATOM  =      8557.41276814
  ---------------------------------------------------
  free energy    TOTEN  =      -393.62129024 eV

  energy without entropy =     -393.62129024  energy(sigma->0) =     -393.62129024


--------------------------------------------------------------------------------------------------------




--------------------------------------- Iteration      1(  15)  ---------------------------------------


    POTLOK:  cpu time    4.2578: real time    4.2911
    SETDIJ:  cpu time    0.0528: real time    0.0530
    TRIAL :  cpu time    1.1615: real time    1.1723
    CORREC:  cpu time    4.7480: real time    4.7870
    CHARGE:  cpu time    0.1818: real time    0.1837
    --------------------------------------------
      LOOP:  cpu time   10.4890: real time   10.5754

 eigenvalue-minimisations  :     0
 total energy-change (2. order) :-0.1519942E-02  (-0.7800125E-03)
 number of electron     216.0000000 magnetization 
 augmentation part       -0.3563071 magnetization 

 Free energy of the ion-electron system (eV)
  ---------------------------------------------------
  alpha Z        PSCENC =        47.94900195
  Ewald energy   TEWEN  =     43620.90154586
  -Hartree energ DENC   =    -50624.49538673
  -exchange      EXHF   =         0.00000000
  -V(xc)+E(xc)   XCENC  =       385.27457710
  PAW double counting   =     79050.23938342   -78763.55367277
  entropy T*S    EENTRO =        -0.00000000
  eigenvalues    EBANDS =     -2667.35102715
  atomic energy  EATOM  =      8557.41276814
  ---------------------------------------------------
  free energy    TOTEN  =      -393.62281018 eV

  energy without entropy =     -393.62281018  energy(sigma->0) =     -393.62281018


--------------------------------------------------------------------------------------------------------




--------------------------------------- Iteration      1(  16)  ---------------------------------------


    POTLOK:  cpu time    4.2689: real time    4.3099
    SETDIJ:  cpu time    0.0528: real time    0.0530
    TRIAL :  cpu time    1.1619: real time    1.1725
    CORREC:  cpu time    4.7318: real time    4.7694
    CHARGE:  cpu time    0.1813: real time    0.1830
    --------------------------------------------
      LOOP:  cpu time   10.4313: real time   10.5312

 eigenvalue-minimisations  :     0
 total energy-change (2. order) :-0.7791299E-03  (-0.4466583E-03)
 number of electron     216.0000000 magnetization 
 augmentation part       -0.3563331 magnetization 

 Free energy of the ion-electron system (eV)
  ---------------------------------------------------
  alpha Z        PSCENC =        47.94900195
  Ewald energy   TEWEN  =     43620.90154586
  -Hartree energ DENC   =    -50624.97004170
  -exchange      EXHF   =         0.00000000
  -V(xc)+E(xc)   XCENC  =       385.29123150
  PAW double counting   =     78974.85597828   -78688.17751242
  entropy T*S    EENTRO =        -0.00000000
  eigenvalues    EBANDS =     -2666.88656092
  atomic energy  EATOM  =      8557.41276814
  ---------------------------------------------------
  free energy    TOTEN  =      -393.62358931 eV

  energy without entropy =     -393.62358931  energy(sigma->0) =     -393.62358931


--------------------------------------------------------------------------------------------------------




--------------------------------------- Iteration      1(  17)  ---------------------------------------


    POTLOK:  cpu time    4.2631: real time    4.2932
    SETDIJ:  cpu time    0.0527: real time    0.0528
    TRIAL :  cpu time    1.1616: real time    1.1735
    CORREC:  cpu time    4.7212: real time    4.7580
    CHARGE:  cpu time    0.1814: real time    0.1832
    --------------------------------------------
      LOOP:  cpu time   10.4526: real time   10.5343

 eigenvalue-minimisations  :     0
 total energy-change (2. order) :-0.4466029E-03  (-0.1932993E-03)
 number of electron     216.0000000 magnetization 
 augmentation part       -0.3563228 magnetization 

 Free energy of the ion-electron system (eV)
  ---------------------------------------------------
  alpha Z        PSCENC =        47.94900195
  Ewald energy   TEWEN  =     43620.90154586
  -Hartree energ DENC   =    -50625.12755711
  -exchange      EXHF   =         0.00000000
  -V(xc)+E(xc)   XCENC  =       385.29577715
  PAW double counting   =     78907.10873734   -78620.42821946
  entropy T*S    EENTRO =        -0.00000000
  eigenvalues    EBANDS =     -2666.73608978
  atomic energy  EATOM  =      8557.41276814
  ---------------------------------------------------
  free energy    TOTEN  =      -393.62403591 eV

  energy without entropy =     -393.62403591  energy(sigma->0) =     -393.62403591


--------------------------------------------------------------------------------------------------------




--------------------------------------- Iteration      1(  18)  ---------------------------------------


    POTLOK:  cpu time    4.2502: real time    4.2807
    SETDIJ:  cpu time    0.0528: real time    0.0530
    TRIAL :  cpu time    1.1611: real time    1.1719
    CORREC:  cpu time    4.7356: real time    4.7753
    CHARGE:  cpu time    0.1807: real time    0.1825
    --------------------------------------------
      LOOP:  cpu time   10.3993: real time   10.4841

 eigenvalue-minimisations  :     0
 total energy-change (2. order) :-0.1936769E-03  (-0.6996637E-04)
 number of electron     216.0000000 magnetization 
 augmentation part       -0.3563549 magnetization 

 Free energy of the ion-electron system (eV)
  ---------------------------------------------------
  alpha Z        PSCENC =        47.94900195
  Ewald energy   TEWEN  =     43620.90154586
  -Hartree energ DENC   =    -50625.20196460
  -exchange      EXHF   =         0.00000000
  -V(xc)+E(xc)   XCENC  =       385.29818809
  PAW double counting   =     78894.09315067   -78607.40847228
  entropy T*S    EENTRO =        -0.00000000
  eigenvalues    EBANDS =     -2666.66844743
  atomic energy  EATOM  =      8557.41276814
  ---------------------------------------------------
  free energy    TOTEN  =      -393.62422959 eV

  energy without entropy =     -393.62422959  energy(sigma->0) =     -393.62422959


--------------------------------------------------------------------------------------------------------




--------------------------------------- Iteration      1(  19)  ---------------------------------------


    POTLOK:  cpu time    4.2644: real time    4.3073
    SETDIJ:  cpu time    0.0528: real time    0.0530
    TRIAL :  cpu time    1.1627: real time    1.1733
    CORREC:  cpu time    4.7412: real time    4.7770
    CHARGE:  cpu time    0.1809: real time    0.1826
    --------------------------------------------
      LOOP:  cpu time   10.4346: real time   10.5584

 eigenvalue-minimisations  :     0
 total energy-change (2. order) :-0.7020339E-04  (-0.2599886E-04)
 number of electron     216.0000000 magnetization 
 augmentation part       -0.3563791 magnetization 

 Free energy of the ion-electron system (eV)
  ---------------------------------------------------
  alpha Z        PSCENC =        47.94900195
  Ewald energy   TEWEN  =     43620.90154586
  -Hartree energ DENC   =    -50625.26410044
  -exchange      EXHF   =         0.00000000
  -V(xc)+E(xc)   XCENC  =       385.30000912
  PAW double counting   =     78912.99224441   -78626.30520978
  entropy T*S    EENTRO =        -0.00000000
  eigenvalues    EBANDS =     -2666.61055905
  atomic energy  EATOM  =      8557.41276814
  ---------------------------------------------------
  free energy    TOTEN  =      -393.62429979 eV

  energy without entropy =     -393.62429979  energy(sigma->0) =     -393.62429979


--------------------------------------------------------------------------------------------------------




--------------------------------------- Iteration      1(  20)  ---------------------------------------


    POTLOK:  cpu time    4.2688: real time    4.2984
    SETDIJ:  cpu time    0.0527: real time    0.0529
    TRIAL :  cpu time    1.1601: real time    1.1735
    CORREC:  cpu time    4.7233: real time    4.7644
    CHARGE:  cpu time    0.1804: real time    0.1823
    --------------------------------------------
      LOOP:  cpu time   10.4470: real time   10.5384

 eigenvalue-minimisations  :     0
 total energy-change (2. order) :-0.2606981E-04  (-0.1208037E-04)
 number of electron     216.0000000 magnetization 
 augmentation part       -0.3563585 magnetization 

 Free energy of the ion-electron system (eV)
  ---------------------------------------------------
  alpha Z        PSCENC =        47.94900195
  Ewald energy   TEWEN  =     43620.90154586
  -Hartree energ DENC   =    -50625.24045288
  -exchange      EXHF   =         0.00000000
  -V(xc)+E(xc)   XCENC  =       385.29949882
  PAW double counting   =     78935.00707248   -78648.31924101
  entropy T*S    EENTRO =        -0.00000000
  eigenvalues    EBANDS =     -2666.63451923
  atomic energy  EATOM  =      8557.41276814
  ---------------------------------------------------
  free energy    TOTEN  =      -393.62432586 eV

  energy without entropy =     -393.62432586  energy(sigma->0) =     -393.62432586


--------------------------------------------------------------------------------------------------------




--------------------------------------- Iteration      1(  21)  ---------------------------------------


    POTLOK:  cpu time    4.2442: real time    4.2800
    SETDIJ:  cpu time    0.0529: real time    0.0531
    TRIAL :  cpu time    1.1594: real time    1.1723
    CORREC:  cpu time    4.7273: real time    4.7697
    CHARGE:  cpu time    0.1823: real time    0.1861
    --------------------------------------------
      LOOP:  cpu time   10.4043: real time   10.5021

 eigenvalue-minimisations  :     0
 total energy-change (2. order) :-0.1206862E-04  (-0.6006392E-05)
 number of electron     216.0000000 magnetization 
 augmentation part       -0.3563451 magnetization 

 Free energy of the ion-electron system (eV)
  ---------------------------------------------------
  alpha Z        PSCENC =        47.94900195
  Ewald energy   TEWEN  =     43620.90154586
  -Hartree energ DENC   =    -50625.22049558
  -exchange      EXHF   =         0.00000000
  -V(xc)+E(xc)   XCENC  =       385.29948836
  PAW double counting   =     78949.70893535   -78663.02134432
  entropy T*S    EENTRO =        -0.00000000
  eigenvalues    EBANDS =     -2666.65423770
  atomic energy  EATOM  =      8557.41276814
  ---------------------------------------------------
  free energy    TOTEN  =      -393.62433793 eV

  energy without entropy =     -393.62433793  energy(sigma->0) =     -393.62433793


--------------------------------------------------------------------------------------------------------




--------------------------------------- Iteration      1(  22)  ---------------------------------------


    POTLOK:  cpu time    4.2286: real time    4.2821
    SETDIJ:  cpu time    0.0525: real time    0.0529
    TRIAL :  cpu time    1.1510: real time    1.1731
    CORREC:  cpu time    4.7082: real time    4.7724
    CHARGE:  cpu time    0.1811: real time    0.1828
    --------------------------------------------
      LOOP:  cpu time   10.3531: real time   10.5056

 eigenvalue-minimisations  :     0
 total energy-change (2. order) :-0.5980735E-05  (-0.2987950E-05)
 number of electron     216.0000000 magnetization 
 augmentation part       -0.3563316 magnetization 

 Free energy of the ion-electron system (eV)
  ---------------------------------------------------
  alpha Z        PSCENC =        47.94900195
  Ewald energy   TEWEN  =     43620.90154586
  -Hartree energ DENC   =    -50625.19351403
  -exchange      EXHF   =         0.00000000
  -V(xc)+E(xc)   XCENC  =       385.29855705
  PAW double counting   =     78955.46922945   -78668.78178341
  entropy T*S    EENTRO =        -0.00000000
  eigenvalues    EBANDS =     -2666.68014893
  atomic energy  EATOM  =      8557.41276814
  ---------------------------------------------------
  free energy    TOTEN  =      -393.62434391 eV

  energy without entropy =     -393.62434391  energy(sigma->0) =     -393.62434391


--------------------------------------------------------------------------------------------------------




--------------------------------------- Iteration      1(  23)  ---------------------------------------


    POTLOK:  cpu time    4.2529: real time    4.2829
    SETDIJ:  cpu time    0.0528: real time    0.0530
    TRIAL :  cpu time    1.1624: real time    1.1731
    CORREC:  cpu time    4.7280: real time    4.7633
    CHARGE:  cpu time    0.1805: real time    0.1824
    --------------------------------------------
      LOOP:  cpu time   10.3980: real time   10.4925

 eigenvalue-minimisations  :     0
 total energy-change (2. order) :-0.2987566E-05  (-0.1240282E-05)
 number of electron     216.0000000 magnetization 
 augmentation part       -0.3563356 magnetization 

 Free energy of the ion-electron system (eV)
  ---------------------------------------------------
  alpha Z        PSCENC =        47.94900195
  Ewald energy   TEWEN  =     43620.90154586
  -Hartree energ DENC   =    -50625.18588405
  -exchange      EXHF   =         0.00000000
  -V(xc)+E(xc)   XCENC  =       385.29853103
  PAW double counting   =     78955.60022767   -78668.91296747
  entropy T*S    EENTRO =        -0.00000000
  eigenvalues    EBANDS =     -2666.68757004
  atomic energy  EATOM  =      8557.41276814
  ---------------------------------------------------
  free energy    TOTEN  =      -393.62434690 eV

  energy without entropy =     -393.62434690  energy(sigma->0) =     -393.62434690


--------------------------------------------------------------------------------------------------------




--------------------------------------- Iteration      1(  24)  ---------------------------------------


    POTLOK:  cpu time    4.2482: real time    4.2801
    SETDIJ:  cpu time    0.0529: real time    0.0530
    TRIAL :  cpu time    1.1862: real time    1.1968
    CORREC:  cpu time    4.7333: real time    4.7835
    CHARGE:  cpu time    0.1817: real time    0.1835
    --------------------------------------------
      LOOP:  cpu time   10.4706: real time   10.5692

 eigenvalue-minimisations  :     0
 total energy-change (2. order) :-0.1241075E-05  (-0.5751410E-06)
 number of electron     216.0000000 magnetization 
 augmentation part       -0.3563440 magnetization 

 Free energy of the ion-electron system (eV)
  ---------------------------------------------------
  alpha Z        PSCENC =        47.94900195
  Ewald energy   TEWEN  =     43620.90154586
  -Hartree energ DENC   =    -50625.17927910
  -exchange      EXHF   =         0.00000000
  -V(xc)+E(xc)   XCENC  =       385.29841894
  PAW double counting   =     78953.53859000   -78666.85132747
  entropy T*S    EENTRO =        -0.00000000
  eigenvalues    EBANDS =     -2666.69406646
  atomic energy  EATOM  =      8557.41276814
  ---------------------------------------------------
  free energy    TOTEN  =      -393.62434814 eV

  energy without entropy =     -393.62434814  energy(sigma->0) =     -393.62434814


--------------------------------------------------------------------------------------------------------




--------------------------------------- Iteration      1(  25)  ---------------------------------------


    POTLOK:  cpu time    4.2513: real time    4.2808
    SETDIJ:  cpu time    0.0528: real time    0.0530
    TRIAL :  cpu time    1.1664: real time    1.1772
    CORREC:  cpu time    4.7280: real time    4.7647
    CHARGE:  cpu time    0.1808: real time    0.1825
    --------------------------------------------
      LOOP:  cpu time   10.4335: real time   10.5156

 eigenvalue-minimisations  :     0
 total energy-change (2. order) :-0.5527399E-06  (-0.2738013E-06)
 number of electron     216.0000000 magnetization 
 augmentation part       -0.3563464 magnetization 

 Free energy of the ion-electron system (eV)
  ---------------------------------------------------
  alpha Z        PSCENC =        47.94900195
  Ewald energy   TEWEN  =     43620.90154586
  -Hartree energ DENC   =    -50625.18134026
  -exchange      EXHF   =         0.00000000
  -V(xc)+E(xc)   XCENC  =       385.29839208
  PAW double counting   =     78951.32452661   -78664.63726159
  entropy T*S    EENTRO =        -0.00000000
  eigenvalues    EBANDS =     -2666.69198148
  atomic energy  EATOM  =      8557.41276814
  ---------------------------------------------------
  free energy    TOTEN  =      -393.62434870 eV

  energy without entropy =     -393.62434870  energy(sigma->0) =     -393.62434870


--------------------------------------------------------------------------------------------------------




--------------------------------------- Iteration      1(  26)  ---------------------------------------


    POTLOK:  cpu time    4.2547: real time    4.2850
    SETDIJ:  cpu time    0.0529: real time    0.0531
    TRIAL :  cpu time    1.1614: real time    1.1722
    CORREC:  cpu time    4.7321: real time    4.7680
    CHARGE:  cpu time    0.1814: real time    0.1832
    --------------------------------------------
      LOOP:  cpu time   10.4615: real time   10.5441

 eigenvalue-minimisations  :     0
 total energy-change (2. order) :-0.2482120E-06  (-0.1425033E-06)
 number of electron     216.0000000 magnetization 
 augmentation part       -0.3563503 magnetization 

 Free energy of the ion-electron system (eV)
  ---------------------------------------------------
  alpha Z        PSCENC =        47.94900195
  Ewald energy   TEWEN  =     43620.90154586
  -Hartree energ DENC   =    -50625.18748216
  -exchange      EXHF   =         0.00000000
  -V(xc)+E(xc)   XCENC  =       385.29858143
  PAW double counting   =     78949.79912751   -78663.11194488
  entropy T*S    EENTRO =        -0.00000000
  eigenvalues    EBANDS =     -2666.68594679
  atomic energy  EATOM  =      8557.41276814
  ---------------------------------------------------
  free energy    TOTEN  =      -393.62434894 eV

  energy without entropy =     -393.62434894  energy(sigma->0) =     -393.62434894


--------------------------------------------------------------------------------------------------------




--------------------------------------- Iteration      1(  27)  ---------------------------------------


    POTLOK:  cpu time    4.2528: real time    4.2833
    SETDIJ:  cpu time    0.0529: real time    0.0531
    TRIAL :  cpu time    1.1617: real time    1.1723
    CORREC:  cpu time    4.7405: real time    4.7918
    CHARGE:  cpu time    0.1813: real time    0.1830
    --------------------------------------------
      LOOP:  cpu time   10.4228: real time   10.5202

 eigenvalue-minimisations  :     0
 total energy-change (2. order) :-0.1184235E-06  (-0.5205615E-07)
 number of electron     216.0000000 magnetization 
 augmentation part       -0.3563497 magnetization 

 Free energy of the ion-electron system (eV)
  ---------------------------------------------------
  alpha Z        PSCENC =        47.94900195
  Ewald energy   TEWEN  =     43620.90154586
  -Hartree energ DENC   =    -50625.18796934
  -exchange      EXHF   =         0.00000000
  -V(xc)+E(xc)   XCENC  =       385.29847932
  PAW double counting   =     78949.13303369   -78662.44586703
  entropy T*S    EENTRO =        -0.00000000
  eigenvalues    EBANDS =     -2666.68534165
  atomic energy  EATOM  =      8557.41276814
  ---------------------------------------------------
  free energy    TOTEN  =      -393.62434906 eV

  energy without entropy =     -393.62434906  energy(sigma->0) =     -393.62434906


--------------------------------------------------------------------------------------------------------




--------------------------------------- Iteration      1(  28)  ---------------------------------------


    POTLOK:  cpu time    4.2245: real time    4.2809
    SETDIJ:  cpu time    0.0527: real time    0.0529
    TRIAL :  cpu time    1.1603: real time    1.1712
    CORREC:  cpu time    4.7239: real time    4.7602
    EDDIAG:  cpu time    0.4364: real time    0.4413
    CHARGE:  cpu time    0.1802: real time    0.1820
[...]
      16 -86.7813      17 -86.7820      18 -86.7828      19 -86.7834      20 -86.7821
      21 -86.7807      22 -86.7804      23 -86.7866      24 -86.7864      25 -86.7806
      26 -86.7811      27 -86.7825      28 -86.7842      29 -86.7808      30 -86.7807
      31 -86.7851      32 -86.7838      33 -86.7816      34 -86.7811      35 -86.7812
      36 -86.7815      37 -86.7826      38 -86.7831      39 -86.7832      40 -86.7830
      41 -86.7830      42 -86.7835      43 -86.7821      44 -86.7836      45 -86.7807
      46 -86.7811      47 -86.7812      48 -86.7809      49 -86.7830      50 -86.7822
      51 -91.0746      52-120.8399      53-120.8395
 
 
 
 E-fermi :  -4.3693     XC(G=0):  -2.3000     alpha+bet : -1.6890

 Fermi energy:        -4.3693424653

 k-point     1 :       0.0000    0.0000    0.0000
  band No.  band energies     occupation 
      1     -27.9093      2.00000
      2     -26.9597      2.00000
      3     -22.3928      2.00000
      4     -21.4662      2.00000
      5     -21.4658      2.00000
      6     -21.4655      2.00000
      7     -21.4645      2.00000
      8     -21.4641      2.00000
      9     -21.4640      2.00000
     10     -19.6502      2.00000
     11     -19.6501      2.00000
     12     -19.6499      2.00000
     13     -19.6493      2.00000
     14     -19.6491      2.00000
     15     -19.6489      2.00000
     16     -18.7699      2.00000
     17     -18.7698      2.00000
     18     -18.7695      2.00000
     19     -18.7690      2.00000
     20     -18.7686      2.00000
     21     -18.7683      2.00000
     22     -16.6743      2.00000
     23     -16.6740      2.00000
     24     -16.6732      2.00000
     25     -16.6730      2.00000
     26     -16.6725      2.00000
     27     -16.6724      2.00000
     28     -15.6295      2.00000
     29     -15.6295      2.00000
     30     -15.6287      2.00000
     31     -15.6286      2.00000
     32     -15.6281      2.00000
     33     -15.6280      2.00000
     34     -14.3171      2.00000
     35     -14.3170      2.00000
     36     -14.3164      2.00000
     37     -14.3162      2.00000
     38     -14.3161      2.00000
     39     -14.3159      2.00000
     40     -12.7904      2.00000
     41     -12.0205      2.00000
     42     -12.0203      2.00000
     43     -12.0198      2.00000
     44     -12.0198      2.00000
     45     -12.0188      2.00000
     46     -12.0185      2.00000
     47     -11.8522      2.00000
     48     -11.8522      2.00000
     49     -11.8515      2.00000
     50     -11.8515      2.00000
     51     -11.8509      2.00000
     52     -11.8508      2.00000
     53     -11.6782      2.00000
     54     -11.5104      2.00000
     55     -11.5101      2.00000
     56     -10.5716      2.00000
     57     -10.5013      2.00000
     58     -10.5011      2.00000
     59     -10.4996      2.00000
     60     -10.4992      2.00000
     61     -10.4990      2.00000
     62     -10.4990      2.00000
     63      -9.4615      2.00000
     64      -9.4610      2.00000
     65      -9.4605      2.00000
     66      -9.4593      2.00000
     67      -9.4582      2.00000
     68      -9.4582      2.00000
     69      -9.3185      2.00000
     70      -9.3184      2.00000
     71      -9.3178      2.00000
     72      -9.3176      2.00000
     73      -9.3171      2.00000
     74      -9.3170      2.00000
     75      -9.2628      2.00000
     76      -9.2626      2.00000
     77      -9.2622      2.00000
     78      -9.2621      2.00000
     79      -9.2617      2.00000
     80      -9.2609      2.00000
     81      -8.0175      2.00000
     82      -8.0172      2.00000
     83      -7.7095      2.00000
     84      -7.7080      2.00000
     85      -7.7078      2.00000
     86      -7.7073      2.00000
     87      -7.7062      2.00000
     88      -7.7061      2.00000
     89      -7.3431      2.00000
     90      -7.3426      2.00000
     91      -7.3425      2.00000
     92      -7.3424      2.00000
     93      -7.3423      2.00000
     94      -7.3422      2.00000
     95      -6.4542      2.00000
     96      -6.4535      2.00000
     97      -6.4531      2.00000
     98      -6.4528      2.00000
     99      -6.4526      2.00000
    100      -6.4525      2.00000
    101      -6.2851      2.00000
    102      -6.2829      2.00000
    103      -4.4878      2.00000
    104      -4.4876      2.00000
    105      -4.4872      2.00000
    106      -4.4871      2.00000
    107      -4.4857      2.00000
    108      -4.4855      2.00000
    109      -1.7020      0.00000
    110      -1.7017      0.00000
    111      -1.7008      0.00000
    112      -1.7005      0.00000
    113      -1.7002      0.00000
    114      -1.7000      0.00000
    115      -0.5234      0.00000
    116      -0.0759      0.00000
    117       0.1445      0.00000
    118       0.1451      0.00000
    119       0.1456      0.00000
    120       0.1461      0.00000
    121       0.1465      0.00000
    122       0.1480      0.00000
    123       0.4228      0.00000
    124       0.7092      0.00000
    125       0.7898      0.00000
    126       0.8601      0.00000
    127       0.8775      0.00000
    128       0.8780      0.00000
    129       0.9121      0.00000
    130       0.9177      0.00000
    131       0.9822      0.00000
    132       1.3296      0.00000
    133       1.6103      0.00000
    134       1.6906      0.00000
    135       1.7231      0.00000
    136       1.8664      0.00000


--------------------------------------------------------------------------------------------------------


 soft charge-density along one line, spin component           1
         0         1         2         3         4         5         6         7         8         9
 total charge-density along one line
 
 pseudopotential strength for first ion, spin component:           1
 12.619  21.238   0.000  -0.000  -0.000   0.000  -0.000  -0.000
 21.238  35.742   0.000  -0.000  -0.000   0.000  -0.000  -0.000
  0.000   0.000  -3.327  -0.000   0.000  -5.962  -0.000   0.000
 -0.000  -0.000  -0.000  -3.362  -0.000  -0.000  -6.024  -0.000
 -0.000  -0.000   0.000  -0.000  -3.327   0.000  -0.000  -5.962
  0.000   0.000  -5.962  -0.000   0.000 -10.663  -0.000   0.000
 -0.000  -0.000  -0.000  -6.024  -0.000  -0.000 -10.773  -0.000
 -0.000  -0.000   0.000  -0.000  -5.962   0.000  -0.000 -10.663
 total augmentation occupancy for first ion, spin component:           1
  6.242  -2.004  -0.000  -0.002  -0.000   0.000   0.001   0.000
 -2.004   0.691   0.000   0.001   0.000  -0.000  -0.000  -0.000
 -0.000   0.000   5.992  -0.007   0.000  -1.878   0.003  -0.000
 -0.002   0.001  -0.007   2.311  -0.000   0.003  -0.483   0.000
 -0.000   0.000   0.000  -0.000   5.992  -0.000   0.000  -1.878
  0.000  -0.000  -1.878   0.003  -0.000   0.606  -0.001   0.000
  0.001  -0.000   0.003  -0.483   0.000  -0.001   0.111  -0.000
  0.000  -0.000  -0.000   0.000  -1.878   0.000  -0.000   0.606


------------------------ aborting loop because EDIFF is reached ----------------------------------------


    FORLOC:  cpu time    0.0693: real time    0.0699
    FORNL :  cpu time    0.8435: real time    0.8479
    FORCOR:  cpu time    4.3180: real time    4.3481
    OFIELD:  cpu time    0.0015: real time    0.0015

 VOLUME and BASIS-vectors are now :
 -----------------------------------------------------------------------------
  energy-cutoff  :     1000.00
  volume of cell :     3288.85
      direct lattice vectors                 reciprocal lattice vectors
    12.325000000  0.000000000  0.000000000     0.081135903  0.046843835  0.000000000
    -6.162500000 10.673763102  0.000000000     0.000000000  0.093687670  0.000000000
     0.000000000  0.000000000 25.000000000     0.000000000  0.000000000  0.040000000

  length of vectors
    12.325000000 12.325000000 25.000000000     0.093687670  0.093687670  0.040000000


 FORCES acting on ions:
    Electron-Ion                     Ewald-Force                    Non-Local-Force
 -----------------------------------------------------------------------------------------------
   0.263E+01 0.228E+01 0.215E+02   -.263E+01 -.228E+01 -.215E+02   0.670E-02 -.969E-03 0.724E-02
   0.375E+01 0.184E+01 0.239E+02   -.376E+01 -.184E+01 -.239E+02   0.659E-02 -.380E-02 -.568E-02
   0.157E+01 0.424E+01 0.252E+02   -.157E+01 -.424E+01 -.252E+02   -.695E-03 0.149E-01 0.272E-02
   0.203E+01 0.293E+01 0.301E+02   -.203E+01 -.294E+01 -.301E+02   0.145E-01 0.192E-02 -.851E-02
   0.281E+01 0.674E+00 0.219E+02   -.281E+01 -.672E+00 -.219E+02   0.155E-02 -.686E-02 0.207E-02
   0.287E+01 -.586E+00 0.221E+02   -.288E+01 0.589E+00 -.221E+02   -.609E-02 0.231E-02 -.538E-02
   0.389E+01 0.143E+01 0.290E+02   -.389E+01 -.143E+01 -.290E+02   0.162E-01 -.210E-01 -.347E-02
   0.379E+01 -.135E+01 0.302E+02   -.380E+01 0.135E+01 -.302E+02   -.217E-02 -.821E-02 -.571E-02
   -.190E+01 0.385E+01 0.255E+02   0.190E+01 -.386E+01 -.255E+02   -.336E-02 -.926E-02 -.571E-02
   -.276E+01 0.233E+01 0.298E+02   0.277E+01 -.233E+01 -.298E+02   -.300E-01 0.178E-01 0.541E-02
   0.737E+00 -.746E+00 0.201E+02   -.733E+00 0.745E+00 -.201E+02   0.256E-02 -.241E-02 -.178E-02
   0.653E+00 -.550E+00 0.195E+02   -.651E+00 0.549E+00 -.195E+02   -.834E-02 0.389E-02 0.479E-02
   0.146E+01 -.317E+01 0.319E+02   -.147E+01 0.317E+01 -.319E+02   0.307E-01 -.110E-01 0.691E-03
   0.855E+00 -.428E+01 0.265E+02   -.863E+00 0.429E+01 -.265E+02   0.678E-02 0.345E-02 -.172E-01
   -.255E+01 0.156E+01 0.213E+02   0.255E+01 -.156E+01 -.213E+02   0.686E-02 -.332E-02 0.516E-02
   -.342E+01 0.102E+01 0.223E+02   0.342E+01 -.102E+01 -.223E+02   -.373E-02 0.666E-02 -.753E-02
   -.464E+00 -.183E+00 0.190E+02   0.470E+00 0.180E+00 -.190E+02   -.226E-02 0.105E-02 0.147E-02
   0.209E+00 0.160E+01 0.194E+02   -.207E+00 -.160E+01 -.194E+02   -.426E-02 0.254E-02 0.947E-02
   -.662E+00 -.408E+01 0.238E+02   0.660E+00 0.408E+01 -.238E+02   0.815E-02 -.365E-02 0.125E-02
   -.365E+00 -.238E+01 0.205E+02   0.360E+00 0.238E+01 -.205E+02   0.175E-02 -.253E-02 -.117E-02
   0.375E+01 -.165E+01 0.249E+02   -.375E+01 0.166E+01 -.249E+02   0.615E-03 -.399E-02 -.204E-01
   0.256E+01 -.211E+01 0.228E+02   -.256E+01 0.211E+01 -.228E+02   -.614E-02 0.497E-02 -.510E-02
   -.712E+00 0.133E+01 0.333E+02   0.710E+00 -.133E+01 -.333E+02   -.122E-01 0.121E-01 0.996E-02
   -.955E+00 -.208E+01 0.329E+02   0.955E+00 0.208E+01 -.329E+02   0.133E-01 -.173E-01 -.280E-02
   0.137E+01 -.531E+00 0.202E+02   -.137E+01 0.529E+00 -.202E+02   0.234E-02 -.209E-02 -.548E-02
   0.330E+00 0.120E+01 0.201E+02   -.328E+00 -.120E+01 -.201E+02   -.663E-02 0.436E-02 0.413E-02
   -.427E+01 0.581E+00 0.264E+02   0.428E+01 -.586E+00 -.264E+02   0.727E-02 0.963E-02 -.228E-02
   -.410E+01 -.162E+01 0.255E+02   0.410E+01 0.162E+01 -.255E+02   -.123E-01 0.103E-01 0.301E-02
   0.150E+01 -.300E+01 0.232E+02   -.150E+01 0.300E+01 -.232E+02   0.660E-02 0.124E-02 -.940E-02
   0.129E+00 -.129E+01 0.208E+02   -.132E+00 0.130E+01 -.208E+02   -.372E-02 0.237E-02 -.439E-02
   -.298E+01 -.309E+01 0.278E+02   0.298E+01 0.309E+01 -.278E+02   -.145E-01 -.923E-02 -.810E-02
   -.208E+01 -.387E+01 0.240E+02   0.208E+01 0.388E+01 -.240E+02   0.830E-03 -.418E-02 0.482E-02
   0.180E+00 0.732E+00 0.194E+02   -.182E+00 -.732E+00 -.194E+02   0.643E-02 -.515E-02 0.627E-02
   0.466E+00 0.707E+00 0.200E+02   -.469E+00 -.705E+00 -.200E+02   -.165E-02 0.392E-02 -.276E-02
   -.178E+01 0.297E+00 0.206E+02   0.178E+01 -.298E+00 -.206E+02   0.358E-02 -.186E-02 0.438E-02
   -.158E+01 -.681E+00 0.204E+02   0.158E+01 0.680E+00 -.204E+02   -.583E-02 0.313E-02 0.260E-02
   -.304E+01 -.159E+01 0.216E+02   0.304E+01 0.159E+01 -.216E+02   -.396E-02 0.133E-02 0.346E-02
   -.196E+01 -.156E+01 0.202E+02   0.196E+01 0.156E+01 -.202E+02   -.568E-02 0.144E-02 0.963E-02
   -.178E+01 -.228E+01 0.208E+02   0.179E+01 0.229E+01 -.208E+02   -.439E-02 -.580E-03 0.591E-02
   -.271E+00 -.600E+00 0.196E+02   0.272E+00 0.601E+00 -.196E+02   0.233E-02 -.983E-04 0.804E-02
   0.670E+00 0.168E+01 0.198E+02   -.670E+00 -.168E+01 -.198E+02   -.434E-02 0.298E-02 0.763E-02
   0.205E+01 0.319E+01 0.219E+02   -.205E+01 -.319E+01 -.219E+02   0.120E-02 0.519E-03 0.962E-02
   0.194E+00 0.281E+01 0.205E+02   -.189E+00 -.281E+01 -.205E+02   -.210E-02 0.275E-02 0.163E-02
   -.522E-01 0.428E+01 0.238E+02   0.562E-01 -.429E+01 -.238E+02   -.106E-01 0.437E-02 0.636E-02
   -.530E+00 0.101E+01 0.206E+02   0.533E+00 -.101E+01 -.206E+02   0.331E-02 -.255E-02 -.677E-03
   -.203E+01 0.250E+01 0.221E+02   0.203E+01 -.250E+01 -.221E+02   -.789E-02 0.152E-02 -.392E-02
   -.479E+00 -.120E+01 0.201E+02   0.477E+00 0.120E+01 -.201E+02   0.770E-02 -.185E-02 0.480E-02
   -.108E+01 0.401E+00 0.195E+02   0.108E+01 -.400E+00 -.195E+02   -.247E-02 0.293E-02 -.497E-02
   0.115E+00 -.748E+00 0.195E+02   -.117E+00 0.749E+00 -.195E+02   0.531E-02 -.358E-02 0.597E-02
   0.118E+01 0.846E+00 0.195E+02   -.119E+01 -.843E+00 -.195E+02   0.179E-02 0.120E-02 0.314E-02
   0.124E-01 0.105E-01 -.288E+03   -.155E-01 -.778E-02 0.288E+03   -.279E-02 0.215E-02 -.121E-03
   -.229E+03 0.156E+03 -.445E+03   0.279E+03 -.190E+03 0.448E+03   -.513E+02 0.349E+02 -.345E+01
   0.229E+03 -.156E+03 -.423E+03   -.279E+03 0.190E+03 0.420E+03   0.513E+02 -.349E+02 0.309E+01
 -----------------------------------------------------------------------------------------------
   -.628E-02 0.128E-01 0.344E+00   0.114E-12 -.114E-12 0.171E-12   0.628E-02 -.129E-01 -.346E+00
 
 
 POSITION                                       TOTAL-FORCE (eV/Angst)
 -----------------------------------------------------------------------------------
     11.98348      0.00342      0.01417         0.002936     -0.001619     -0.000784
     -0.34154      1.42665      0.01100        -0.001554      0.000210     -0.003369
      2.12355      0.00315      0.01249        -0.001920      0.009868     -0.005950
      2.12326      1.42653      0.00641         0.012877      0.000812     -0.007713
     10.75099      2.13819      0.01213         0.000420     -0.005320      0.000151
     -1.57382      3.56123      0.01110        -0.008631      0.004690     -0.001463
      0.89078      2.13854      0.00548         0.008723     -0.018513      0.002357
      0.89099      3.56147      0.00181        -0.012513     -0.001954      0.011410
      4.58864      0.00346      0.01135         0.004114     -0.016100     -0.003427
      4.58894      1.42623      0.00646        -0.022014      0.012353      0.013714
      9.51854      4.27281      0.01369         0.006657     -0.003073      0.000293
     -2.80632      5.69591      0.01434        -0.006303      0.003282      0.000986
      2.12300      4.27302      0.00000         0.023766     -0.004240      0.019926
      2.12335      5.69594      0.00581        -0.001220      0.009604     -0.002944
      7.05344      0.00333      0.01399         0.008956     -0.005078     -0.000043
      7.05353      1.42635      0.01368        -0.001301      0.004437     -0.003714
      8.28610      6.40752      0.01601         0.003183     -0.001554     -0.000579
     -4.03885      7.83070      0.01636        -0.002080      0.000886      0.000215
      3.35586      6.40753      0.01007         0.005134      0.000755     -0.001244
      3.35599      7.83072      0.01320        -0.003422      0.000332     -0.000565
     -0.34146      4.27290      0.00723        -0.002208     -0.000993     -0.004817
     -0.34138      5.69591      0.00946        -0.008841      0.006238     -0.001095
      3.35624      2.13791      0.00222        -0.013459      0.011471      0.016437
      3.35573      3.56155      0.00139         0.013530     -0.015287      0.008746
     -1.57395      6.40758      0.01311         0.005522     -0.003996     -0.000579
     -1.57385      7.83068      0.01438        -0.004568      0.003692      0.000318
      5.82093      2.13784      0.01033         0.016475      0.004719     -0.002722
      5.82114      3.56097      0.01156        -0.005709      0.008281     -0.003408
      0.89092      6.40755      0.00907         0.004177      0.002217     -0.002321
      0.89106      7.83068      0.01235        -0.006778      0.003725      0.000369
      4.58871      4.27293      0.00850        -0.012262     -0.005685     -0.010353
      4.58852      5.69606      0.01149         0.002066     -0.000802     -0.003631
      9.51845      0.00337      0.01490         0.004522     -0.004479      0.000445
      9.51855      1.42644      0.01438        -0.005191      0.005401     -0.000210
      8.28593      2.13803      0.01453         0.006528     -0.003399      0.000819
      8.28613      3.56115      0.01464        -0.004191      0.002006      0.000217
      7.05356      4.27269      0.01457         0.003253     -0.001138     -0.000388
      7.05362      5.69588      0.01553        -0.002326      0.001531      0.000208
      5.82112      6.40755      0.01489        -0.002771      0.001817      0.000132
      5.82102      7.83073      0.01579         0.002739      0.000274      0.000004
      7.05363      8.54227      0.01631        -0.004621      0.001078      0.001304
     -5.27149      9.96549      0.01495         0.000078     -0.002253     -0.001753
     -2.80638      8.54234      0.01558         0.003388     -0.001769     -0.000963
     -2.80627      9.96553      0.01362        -0.006361     -0.000372     -0.003430
     -0.34149      8.54239      0.01378         0.005689     -0.004751      0.000376
     -0.34138      9.96550      0.01354        -0.005329     -0.000166     -0.001154
      2.12343      8.54232      0.01336         0.005602     -0.001492      0.000984
      2.12354      9.96544      0.01469        -0.005304      0.003836     -0.001785
      4.58846      8.54235      0.01505         0.003548     -0.002735      0.001152
      4.58853      9.96550      0.01517        -0.003047      0.003323      0.000368
      3.04930      2.68154      5.94604        -0.005763      0.004789      0.027778
      4.02070      2.02068      6.01046        -0.485852      0.330183     -0.049973
      2.07767      3.34267      5.88658         0.491656     -0.335046      0.011669
 -----------------------------------------------------------------------------------
    total drift:                                0.000008     -0.000089     -0.002220


--------------------------------------------------------------------------------------------------------



  FREE ENERGIE OF THE ION-ELECTRON SYSTEM (eV)
  ---------------------------------------------------
  free  energy   TOTEN  =      -393.62434911 eV

  energy  without entropy=     -393.62434911  energy(sigma->0) =     -393.62434911
 


--------------------------------------------------------------------------------------------------------


    POTLOK:  cpu time    4.2948: real time    4.3266


--------------------------------------------------------------------------------------------------------


     LOOP+:  cpu time  294.5036: real time  297.4690
    4ORBIT:  cpu time    0.0000: real time    0.0000

 total amount of memory used by VASP MPI-rank0   100580. kBytes
=======================================================================

   base      :      30000. kBytes
   nonl-proj :       8229. kBytes
   fftplans  :      18352. kBytes
   grid      :      30208. kBytes
   one-center:          6. kBytes
   wavefun   :      13785. kBytes
 
  
  
 General timing and accounting informations for this job:
 ========================================================
  
                  Total CPU time used (sec):      337.356
                            User time (sec):      311.903
                          System time (sec):       25.452
                         Elapsed time (sec):      341.637
  
                   Maximum memory used (kb):      821232.
                   Average memory used (kb):          N/A
  
                          Minor page faults:       441736
                          Major page faults:           68
                 Voluntary context switches:         3782
