 vasp.6.2.1 16May21 (build Nov 06 2021 14:46:37) complex                        
  
 executed on             LinuxIFC date 2025.04.16  19:53:48
 running on  112 total cores
 distrk:  each k-point on  112 cores,    1 groups
 distr:  one band on NCORE=  28 cores,    4 groups


--------------------------------------------------------------------------------------------------------


 INCAR:
   NPAR = 4
   ALGO = Conjugate
   ISMEAR = 0
   SIGMA = 0.01
   PREC = Accurate
   EDIFF = 1E-7
   ENCUT = 1000
   ISIF = 0
   GGA = ML
   LUSE_VDW = .TRUE.
   ZAB_VDW = -1.8867
   AGGAC = 0.0000
   LASPH = .TRUE.
   SYMPREC = 1E-7
   LWAVE = .FALSE.
   LCHARGE = .FALSE.

 POTCAR:    PAW_PBE C_h 06Feb2004                 
 POTCAR:    PAW_PBE O_h 06Feb2004                 
 -----------------------------------------------------------------------------
|                                                                             |
|           W    W    AA    RRRRR   N    N  II  N    N   GGGG   !!!           |
|           W    W   A  A   R    R  NN   N  II  NN   N  G    G  !!!           |
|           W    W  A    A  R    R  N N  N  II  N N  N  G       !!!           |
|           W WW W  AAAAAA  RRRRR   N  N N  II  N  N N  G  GGG   !            |
|           WW  WW  A    A  R   R   N   NN  II  N   NN  G    G                |
|           W    W  A    A  R    R  N    N  II  N    N   GGGG   !!!           |
|                                                                             |
|     For optimal performance we recommend to set                             |
|       NCORE = 2 up to number-of-cores-per-socket                            |
|     NCORE specifies how many cores store one orbital (NPAR=cpu/NCORE).      |
|     This setting can greatly improve the performance of VASP for DFT.       |
|     The default, NCORE=1 might be grossly inefficient on modern             |
|     multi-core architectures or massively parallel machines. Do your        |
|     own testing! More info at https://www.vasp.at/wiki/index.php/NCORE      |
|     Unfortunately you need to use the default for GW and RPA                |
|     calculations (for HF NCORE is supported but not extensively tested      |
|     yet).                                                                   |
|                                                                             |
 -----------------------------------------------------------------------------

 -----------------------------------------------------------------------------
|                                                                             |
|               ----> ADVICE to this user running VASP <----                  |
|                                                                             |
|     You have switched on vdW-DFT.                                           |
|     This routine was written and supplied by Jiri Klimes. We recommend      |
|     that you carefully read and cite the following publications:            |
|       J. Klimes, D.R. Bowler, A. Michelides                                 |
|          J. Phys.: Cond Matt. 22 022201 (2010)                              |
|       J. Klimes, D.R. Bowler, A. Michelides                                 |
|          Phys. Rev. B. 83, 195131 (2011)                                    |
|     and references therein.                                                 |
|                                                                             |
 -----------------------------------------------------------------------------

 POTCAR:    PAW_PBE C_h 06Feb2004                 
   VRHFIN =C: s2p2                                                                                  
   LEXCH  = PE                                                                                      
   EATOM  =   147.1560 eV,   10.8157 Ry                                                             
                                                                                                    
   TITEL  = PAW_PBE C_h 06Feb2004                                                                   
   LULTRA =        F    use ultrasoft PP ?                                                          
   IUNSCR =        1    unscreen: 0-lin 1-nonlin 2-no                                               
   RPACOR =    0.800    partial core radius                                                         
   POMASS =   12.011; ZVAL   =    4.000    mass and valenz                                          
   RCORE  =    1.100    outmost cutoff radius                                                       
   RWIGS  =    1.630; RWIGS  =    0.863    wigner-seitz radius (au A)                               
   ENMAX  =  700.000; ENMIN  =  500.000 eV                                                          
   ICORE  =        2    local potential                                                             
   LCOR   =        T    correct aug charges                                                         
   LPAW   =        T    paw PP                                                                      
   EAUG   =  946.768                                                                                
   DEXC   =    0.000                                                                                
   RMAX   =    1.128    core radius for proj-oper                                                   
   RAUG   =    1.300    factor for augmentation sphere                                              
   RDEP   =    1.162    radius for radial grids                                                     
   RDEPT  =    1.088    core radius for aug-charge                                                  
                                                                                                    
   Atomic configuration                                                                             
    4 entries                                                                                       
     n  l   j            E        occ.                                                              
     1  0  0.50      -273.3789   2.0000                                                             
     2  0  0.50       -13.7508   2.0000                                                             
     2  1  0.50        -5.2854   2.0000                                                             
     3  2  1.50        -5.4423   0.0000                                                             
   Description                                                                                      
     l       E           TYP  RCUT    TYP  RCUT                                                     
     0    -13.7508458     23  1.100                                                                 
     0     -8.2022199     23  1.100                                                                 
     1     -5.2854383     23  1.100                                                                 
     1      1.1560700     23  1.100                                                                 
     2     -5.4423304      7  1.100                                                                 
  local pseudopotential read in
  partial core-charges read in
  partial kinetic energy density read in
  atomic valenz-charges read in
  non local Contribution for L=           0  read in
    real space projection operators read in
  non local Contribution for L=           0  read in
    real space projection operators read in
  non local Contribution for L=           1  read in
    real space projection operators read in
  non local Contribution for L=           1  read in
    real space projection operators read in
    PAW grid and wavefunctions read in
 
   number of l-projection  operators is LMAX  =           4
   number of lm-projection operators is LMMAX =           8
 
 POTCAR:    PAW_PBE O_h 06Feb2004                 
   VRHFIN =O: s2p4                                                                                  
   LEXCH  = PE                                                                                      
   EATOM  =   432.3788 eV,   31.7789 Ry                                                             
                                                                                                    
   TITEL  = PAW_PBE O_h 06Feb2004                                                                   
   LULTRA =        F    use ultrasoft PP ?                                                          
   IUNSCR =        1    unscreen: 0-lin 1-nonlin 2-no                                               
   RPACOR =    0.800    partial core radius                                                         
   POMASS =   16.000; ZVAL   =    6.000    mass and valenz                                          
   RCORE  =    1.100    outmost cutoff radius                                                       
   RWIGS  =    1.400; RWIGS  =    0.741    wigner-seitz radius (au A)                               
   ENMAX  =  700.000; ENMIN  =  500.000 eV                                                          
   ICORE  =        2    local potential                                                             
   LCOR   =        T    correct aug charges                                                         
   LPAW   =        T    paw PP                                                                      
   EAUG   =  888.804                                                                                
   DEXC   =    0.000                                                                                
   RMAX   =    1.128    core radius for proj-oper                                                   
   RAUG   =    1.300    factor for augmentation sphere                                              
   RDEP   =    1.125    radius for radial grids                                                     
   RDEPT  =    1.088    core radius for aug-charge                                                  
                                                                                                    
   Atomic configuration                                                                             
    4 entries                                                                                       
     n  l   j            E        occ.                                                              
     1  0  0.50      -514.6923   2.0000                                                             
     2  0  0.50       -23.9615   2.0000                                                             
     2  1  0.50        -9.0305   4.0000                                                             
     3  2  1.50        -9.5241   0.0000                                                             
   Description                                                                                      
     l       E           TYP  RCUT    TYP  RCUT                                                     
     0    -23.9615319     23  1.100                                                                 
     0    -25.3221145     23  1.100                                                                 
     1     -9.0304911     23  1.100                                                                 
     1     -5.4802209     23  1.100                                                                 
     2     -9.5240782      7  1.100                                                                 
  local pseudopotential read in
  partial core-charges read in
  partial kinetic energy density read in
  atomic valenz-charges read in
  non local Contribution for L=           0  read in
    real space projection operators read in
  non local Contribution for L=           0  read in
    real space projection operators read in
  non local Contribution for L=           1  read in
    real space projection operators read in
  non local Contribution for L=           1  read in
    real space projection operators read in
    PAW grid and wavefunctions read in
 
   number of l-projection  operators is LMAX  =           4
   number of lm-projection operators is LMMAX =           8
 
 -----------------------------------------------------------------------------
|                                                                             |
|               ----> ADVICE to this user running VASP <----                  |
|                                                                             |
|     You have a (more or less) 'large supercell' and for larger cells it     |
|     might be more efficient to use real-space projection operators.         |
|     Therefore, try LREAL= Auto in the INCAR file.                           |
|     Mind: For very accurate calculation, you might also keep the            |
|     reciprocal projection scheme (i.e. LREAL=.FALSE.).                      |
|                                                                             |
 -----------------------------------------------------------------------------

 -----------------------------------------------------------------------------
|                                                                             |
|               ----> ADVICE to this user running VASP <----                  |
|                                                                             |
|     You enforced a specific xc type in the INCAR file but a different       |
|     type was found in the POTCAR file.                                      |
|     I HOPE YOU KNOW WHAT YOU ARE DOING!                                     |
|                                                                             |
 -----------------------------------------------------------------------------

  PAW_PBE C_h 06Feb2004                 :
 energy of atom  1       EATOM= -147.1560
 kinetic energy error for atom=    0.0031 (will be added to EATOM!!)
  PAW_PBE O_h 06Feb2004                 :
 energy of atom  2       EATOM= -432.3788
 kinetic energy error for atom=    0.0171 (will be added to EATOM!!)
 
 
 POSCAR:  C  O
  positions in cartesian coordinates
  No initial velocities read in
 exchange correlation table for  LEXCH =       44
   RHO(1)=    0.500       N(1)  =     2000
   RHO(2)=  100.500       N(2)  =     4000
 


--------------------------------------------------------------------------------------------------------


 ion  position               nearest neighbor table
   1  0.972  0.000  0.001-  50 1.42   2 1.42  42 1.42
   2  0.039  0.134  0.000-   5 1.42   7 1.42   1 1.42
   3  0.172  0.000  0.000-  42 1.42  44 1.42   4 1.42
   4  0.239  0.134  0.000-   7 1.42   3 1.42  23 1.42
   5  0.972  0.200  0.000-   6 1.42   2 1.42  34 1.42
   6  0.039  0.334  0.000-   5 1.42  21 1.42  11 1.42
   7  0.172  0.200  0.000-   8 1.42   2 1.42   4 1.42
   8  0.239  0.334  0.000-  13 1.42   7 1.42  21 1.42
   9  0.372  0.000  0.000-  10 1.42  44 1.42  46 1.42
  10  0.439  0.134  0.000-  27 1.42   9 1.42  23 1.42
  11  0.972  0.400  0.001-  12 1.42  36 1.42   6 1.42
  12  0.039  0.534  0.001-  25 1.42  11 1.42  17 1.42
  13  0.372  0.400  0.000-   8 1.42  14 1.42  24 1.42
  14  0.439  0.534  0.000-  13 1.42  29 1.42  19 1.42
  15  0.572  0.000  0.001-  46 1.42  16 1.42  48 1.42
  16  0.639  0.134  0.001-  15 1.42  35 1.42  27 1.42
  17  0.972  0.600  0.001-  38 1.42  18 1.42  12 1.42
  18  0.039  0.734  0.001-  43 1.42  41 1.42  17 1.42
  19  0.572  0.600  0.000-  14 1.42  20 1.42  32 1.42
  20  0.639  0.734  0.001-  49 1.42  19 1.42  47 1.42
  21  0.172  0.400  0.000-  22 1.42   8 1.42   6 1.42
  22  0.239  0.534  0.000-  21 1.42  29 1.42  25 1.42
  23  0.372  0.200  0.000-  10 1.42   4 1.42  24 1.42
  24  0.439  0.334  0.000-  13 1.42  31 1.42  23 1.42
  25  0.172  0.600  0.001-  26 1.42  12 1.42  22 1.42
  26  0.239  0.734  0.001-  25 1.42  45 1.42  43 1.42
  27  0.572  0.200  0.000-  10 1.42  28 1.42  16 1.42
  28  0.639  0.334  0.000-  27 1.42  37 1.42  31 1.42
  29  0.372  0.600  0.000-  22 1.42  14 1.42  30 1.42
  30  0.439  0.734  0.000-  47 1.42  29 1.42  45 1.42
  31  0.572  0.400  0.000-  32 1.42  28 1.42  24 1.42
  32  0.639  0.534  0.000-  31 1.42  39 1.42  19 1.42
  33  0.772  0.000  0.001-  34 1.42  48 1.42  50 1.42
  34  0.839  0.134  0.001-  33 1.42   5 1.42  35 1.42
  35  0.772  0.200  0.001-  36 1.42  16 1.42  34 1.42
  36  0.839  0.334  0.001-  35 1.42  11 1.42  37 1.42
  37  0.772  0.400  0.001-  28 1.42  38 1.42  36 1.42
  38  0.839  0.534  0.001-  17 1.42  37 1.42  39 1.42
  39  0.772  0.600  0.001-  40 1.42  38 1.42  32 1.42
  40  0.839  0.734  0.001-  39 1.42  49 1.42  41 1.42
  41  0.972  0.800  0.001-  18 1.42  42 1.42  40 1.42
  42  0.039  0.934  0.001-   3 1.42  41 1.42   1 1.42
  43  0.172  0.800  0.001-  18 1.42  44 1.42  26 1.42
  44  0.239  0.934  0.001-   9 1.42  43 1.42   3 1.42
  45  0.372  0.800  0.001-  26 1.42  46 1.42  30 1.42
  46  0.439  0.934  0.001-  15 1.42  45 1.42   9 1.42
  47  0.572  0.800  0.001-  30 1.42  48 1.42  20 1.42
  48  0.639  0.934  0.001-  47 1.42  33 1.42  15 1.42
  49  0.772  0.800  0.001-  50 1.42  20 1.42  40 1.42
  50  0.839  0.934  0.001-  49 1.42   1 1.42  33 1.42
  51  0.373  0.251  0.267-  52 1.18  53 1.18
  52  0.421  0.189  0.270-  51 1.18
  53  0.325  0.313  0.265-  51 1.18
 
  LATTYP: Found a hexagonal cell.
 ALAT       =    12.3250000000
 C/A-ratio  =     2.0283975659
  
  Lattice vectors:
  
 A1 = (  12.3250000000,   0.0000000000,   0.0000000000)
 A2 = (  -6.1625000000,  10.6737631016,   0.0000000000)
 A3 = (   0.0000000000,   0.0000000000,  25.0000000000)


Analysis of symmetry for initial positions (statically):
=====================================================================
 Subroutine PRICEL returns:
 Original cell was already a primitive cell.
 

 Routine SETGRP: Setting up the symmetry group for a 
 hexagonal supercell.


 Subroutine GETGRP returns: Found  1 space group operations
 (whereof  1 operations were pure point group operations)
 out of a pool of 24 trial point group operations.


The static configuration has the point symmetry C_1 .


Analysis of symmetry for dynamics (positions and initial velocities):
=====================================================================
 Subroutine PRICEL returns:
 Original cell was already a primitive cell.
 

 Routine SETGRP: Setting up the symmetry group for a 
 hexagonal supercell.


 Subroutine GETGRP returns: Found  1 space group operations
 (whereof  1 operations were pure point group operations)
 out of a pool of 24 trial point group operations.


The dynamic configuration has the point symmetry C_1 .


 Subroutine INISYM returns: Found  1 space group operations
 (whereof  1 operations are pure point group operations),
 and found     1 'primitive' translations


----------------------------------------------------------------------------------------

                                     Primitive cell                                     

  volume of cell :    3288.8533

  direct lattice vectors                    reciprocal lattice vectors
    12.325000000  0.000000000  0.000000000     0.081135903  0.046843835  0.000000000
    -6.162500000 10.673763102  0.000000000     0.000000000  0.093687670  0.000000000
     0.000000000  0.000000000 25.000000000     0.000000000  0.000000000  0.040000000

  length of vectors
    12.325000000 12.325000000 25.000000000     0.093687670  0.093687670  0.040000000

  position of ions in fractional coordinates (direct lattice)
     0.972450841  0.000320818  0.000566711
     0.039118382  0.133659505  0.000440173
     0.172443627  0.000295449  0.000499628
     0.239096278  0.133647917  0.000256468
     0.972452058  0.200322012  0.000485219
     0.039128360  0.333643771  0.000444150
     0.172451764  0.200354552  0.000219167
     0.239124359  0.333665720  0.000072260
     0.372465565  0.000324403  0.000453913
     0.439137473  0.133619939  0.000258338
     0.972449824  0.400309362  0.000547611
     0.039124981  0.533636789  0.000573410
     0.372416176  0.400329481  0.000000000
     0.439099602  0.533638981  0.000232414
     0.572443676  0.000312125  0.000559580
     0.639110207  0.133631751  0.000547275
     0.972452703  0.600305653  0.000640289
     0.039124495  0.733640359  0.000654513
     0.572433471  0.600306242  0.000402895
     0.639111888  0.733641879  0.000527905
     0.172454630  0.400318228  0.000289045
     0.239120185  0.533636548  0.000378509
     0.372459750  0.200295993  0.000088997
     0.439107096  0.333673419  0.000055762
     0.172452155  0.600311506  0.000524340
     0.239123371  0.733638574  0.000575129
     0.572431082  0.200289171  0.000413296
     0.639112773  0.333618630  0.000462376
     0.372439808  0.600308022  0.000362844
     0.439116090  0.733637858  0.000494190
     0.572469358  0.400320504  0.000339918
     0.639119408  0.533650873  0.000459610
     0.772445723  0.000315427  0.000596161
     0.839116277  0.133640203  0.000575306
     0.772440513  0.200307432  0.000581033
     0.839120241  0.333635728  0.000585467
     0.772446320  0.400298367  0.000582978
     0.839118980  0.533633964  0.000621100
     0.772456143  0.600308173  0.000595712
     0.839115033  0.733643180  0.000631512
     0.972455313  0.800305582  0.000652233
     0.039114714  0.933643289  0.000598051
     0.172457971  0.800312211  0.000623372
     0.239134551  0.933647193  0.000544850
     0.372451396  0.800316674  0.000551399
     0.439124489  0.933644769  0.000541430
     0.572441101  0.800310054  0.000534535
     0.639115067  0.933638985  0.000587644
     0.772445098  0.800313187  0.000602062
     0.839116614  0.933644338  0.000606830
     0.373021009  0.251226878  0.266967971
     0.420879805  0.189313152  0.269544845
     0.325156981  0.313167186  0.264589776

  ion indices of the primitive-cell ions
   primitive index   ion index
                 1           1
                 2           2
                 3           3
                 4           4
                 5           5
                 6           6
                 7           7
                 8           8
                 9           9
                10          10
                11          11
                12          12
                13          13
                14          14
                15          15
                16          16
                17          17
                18          18
                19          19
                20          20
                21          21
                22          22
                23          23
                24          24
                25          25
                26          26
                27          27
                28          28
                29          29
                30          30
                31          31
                32          32
                33          33
                34          34
                35          35
                36          36
                37          37
                38          38
                39          39
                40          40
                41          41
                42          42
                43          43
                44          44
                45          45
                46          46
                47          47
                48          48
                49          49
                50          50
                51          51
                52          52
                53          53

----------------------------------------------------------------------------------------

 
 
 KPOINTS: auto                                    

Automatic generation of k-mesh.
 Grid dimensions read from file:
 generate k-points for:    1    1    1

 Generating k-lattice:

  Cartesian coordinates                     Fractional coordinates (reciprocal lattice)
     0.081135903  0.046843835  0.000000000     1.000000000 -0.000000000  0.000000000
     0.000000000  0.093687670  0.000000000     0.000000000  1.000000000  0.000000000
     0.000000000  0.000000000  0.040000000     0.000000000  0.000000000  1.000000000

  Length of vectors
     0.093687670  0.093687670  0.040000000

  Shift w.r.t. Gamma in fractional coordinates (k-lattice)
     0.000000000  0.000000000  0.000000000

 
 Subroutine IBZKPT returns following result:
 ===========================================
 
 Found      1 irreducible k-points:
 
 Following reciprocal coordinates:
            Coordinates               Weight
  0.000000  0.000000  0.000000      1.000000
 
 Following cartesian coordinates:
            Coordinates               Weight
  0.000000  0.000000  0.000000      1.000000
 


--------------------------------------------------------------------------------------------------------




 Dimension of arrays:
   k-points           NKPTS =      1   k-points in BZ     NKDIM =      1   number of bands    NBANDS=    136
   number of dos      NEDOS =    301   number of ions     NIONS =     53
   non local maximal  LDIM  =      4   non local SUM 2l+1 LMDIM =      8
   total plane-waves  NPLWV = ******
   max r-space proj   IRMAX =      1   max aug-charges    IRDMAX=  10008
   dimension x,y,z NGX =   128 NGY =  128 NGZ =  270
   dimension x,y,z NGXF=   256 NGYF=  256 NGZF=  540
   support grid    NGXF=   256 NGYF=  256 NGZF=  540
   ions per type =              51   2
   NGX,Y,Z   is equivalent  to a cutoff of  17.27, 17.27, 17.95 a.u.
   NGXF,Y,Z  is equivalent  to a cutoff of  34.53, 34.53, 35.91 a.u.

 SYSTEM =  unknown system                          
 POSCAR =   C  O                                   

 Startparameter for this run:
   NWRITE =      2    write-flag & timer
   PREC   = accura    normal or accurate (medium, high low for compatibility)
   ISTART =      0    job   : 0-new  1-cont  2-samecut
   ICHARG =      2    charge: 1-file 2-atom 10-const
   ISPIN  =      1    spin polarized calculation?
   LNONCOLLINEAR =      F non collinear calculations
   LSORBIT =      F    spin-orbit coupling
   INIWAV =      1    electr: 0-lowe 1-rand  2-diag
   LASPH  =      T    aspherical Exc in radial PAW
 Electronic Relaxation 1
   ENCUT  = 1000.0 eV  73.50 Ry    8.57 a.u.  31.78 31.78 64.46*2*pi/ulx,y,z
   ENINI  = 1000.0     initial cutoff
   ENAUG  =  946.8 eV  augmentation charge cutoff
   NELM   =     60;   NELMIN=  2; NELMDL= -5     # of ELM steps 
   EDIFF  = 0.1E-06   stopping-criterion for ELM
   LREAL  =      F    real-space projection
   NLSPLINE    = F    spline interpolate recip. space projectors
   LCOMPAT=      F    compatible to vasp.4.4
   GGA_COMPAT  = T    GGA compatible to vasp.4.4-vasp.4.6
   LMAXPAW     = -100 max onsite density
   LMAXMIX     =    2 max onsite mixed and CHGCAR
   VOSKOWN=      0    Vosko Wilk Nusair interpolation
   ROPT   =    0.00000   0.00000
 Ionic relaxation
   EDIFFG = 0.1E-05   stopping-criterion for IOM
   NSW    =      0    number of steps for IOM
   NBLOCK =      1;   KBLOCK =      1    inner block; outer block 
   IBRION =     -1    ionic relax: 0-MD 1-quasi-New 2-CG
   NFREE  =      0    steps in history (QN), initial steepest desc. (CG)
   ISIF   =      0    stress and relaxation
   IWAVPR =     10    prediction:  0-non 1-charg 2-wave 3-comb
   ISYM   =      2    0-nonsym 1-usesym 2-fastsym
   LCORR  =      T    Harris-Foulkes like correction to forces

   POTIM  = 0.5000    time-step for ionic-motion
   TEIN   =    0.0    initial temperature
   TEBEG  =    0.0;   TEEND  =   0.0 temperature during run
   SMASS  =  -3.00    Nose mass-parameter (am)
   estimated Nose-frequenzy (Omega)   =  0.10E-29 period in steps = 0.13E+47 mass=  -0.347E-26a.u.
   SCALEE = 1.0000    scale energy and forces
   NPACO  =    256;   APACO  = 16.0  distance and # of slots for P.C.
   PSTRESS=    0.0 pullay stress

  Mass of Ions in am
   POMASS =  12.01 16.00
  Ionic Valenz
   ZVAL   =   4.00  6.00
  Atomic Wigner-Seitz radii
   RWIGS  =  -1.00 -1.00
  virtual crystal weights 
   VCA    =   1.00  1.00
   NELECT =     216.0000    total number of electrons
   NUPDOWN=      -1.0000    fix difference up-down

 DOS related values:
   EMIN   =  10.00;   EMAX   =-10.00  energy-range for DOS
   EFERMI =   0.00
   ISMEAR =     0;   SIGMA  =   0.01  broadening in eV -4-tet -1-fermi 0-gaus

 Electronic relaxation 2 (details)
   IALGO  =     58    algorithm
   LDIAG  =      T    sub-space diagonalisation (order eigenvalues)
   LSUBROT=      F    optimize rotation matrix (better conditioning)
   TURBO    =      0    0=normal 1=particle mesh
   IRESTART =      0    0=no restart 2=restart with 2 vectors
   NREBOOT  =      0    no. of reboots
   NMIN     =      0    reboot dimension
   EREF     =   0.00    reference energy to select bands
   IMIX   =      4    mixing-type and parameters
     AMIX     =   0.40;   BMIX     =  1.00
     AMIX_MAG =   1.60;   BMIX_MAG =  1.00
     AMIN     =   0.10
     WC   =   100.;   INIMIX=   1;  MIXPRE=   1;  MAXMIX= -45

 Intra band minimization:
   WEIMIN = 0.0000     energy-eigenvalue tresh-hold
   EBREAK =  0.18E-09  absolut break condition
   DEPER  =   0.30     relativ break condition  

   TIME   =   0.40     timestep for ELM

  volume/ion in A,a.u.               =      62.05       418.76
  Fermi-wavevector in a.u.,A,eV,Ry     =   0.660508  1.248179  5.935820  0.436270
  Thomas-Fermi vector in A             =   1.732977
 
 Write flags
   LWAVE        =      F    write WAVECAR
   LDOWNSAMPLE  =      F    k-point downsampling of WAVECAR
   LCHARG       =      T    write CHGCAR
   LVTOT        =      F    write LOCPOT, total local potential
   LVHAR        =      F    write LOCPOT, Hartree potential only
   LELF         =      F    write electronic localiz. function (ELF)
   LORBIT       =      0    0 simple, 1 ext, 2 COOP (PROOUT), +10 PAW based schemes


 Dipole corrections
   LMONO  =      F    monopole corrections only (constant potential shift)
   LDIPOL =      F    correct potential (dipole corrections)
   IDIPOL =      0    1-x, 2-y, 3-z, 4-all directions 
   EPSILON=  1.0000000 bulk dielectric constant

 Exchange correlation treatment:
   GGA     =    ML    GGA type
   LEXCH   =    44    internal setting for exchange type
   VOSKOWN=      0    Vosko Wilk Nusair interpolation
   LHFCALC =     F    Hartree Fock is set to
   LHFONE  =     F    Hartree Fock one center treatment
   AEXX    =    0.0000 exact exchange contribution

 vdW DFT:
   LUSE_VDW   =     T    switch on vdW DFT
   Zab_VDW    =******    correlation parameter
   PARAM1     =0.1234
   PARAM2     =1.0000
   PARAM3     =0.0000
   -- rVV10 --
   BPARAM     = 6.3000
   CPARAM     = 0.0093

 Linear response parameters
   LEPSILON=     F    determine dielectric tensor
   LRPA    =     F    only Hartree local field effects (RPA)
   LNABLA  =     F    use nabla operator in PAW spheres
   LVEL    =     F    velocity operator in full k-point grid
   LINTERFAST=   F  fast interpolation
   KINTER  =     0    interpolate to denser k-point grid
   CSHIFT  =0.1000    complex shift for real part using Kramers Kronig
   OMEGAMAX=  -1.0    maximum frequency
   DEG_THRESHOLD= 0.2000000E-02 threshold for treating states as degnerate
   RTIME   =   -0.100 relaxation time in fs
  (WPLASMAI=    0.000 imaginary part of plasma frequency in eV, 0.658/RTIME)
   DFIELD  = 0.0000000 0.0000000 0.0000000 field for delta impulse in time
 
 Orbital magnetization related:
   ORBITALMAG=     F  switch on orbital magnetization
   LCHIMAG   =     F  perturbation theory with respect to B field
   DQ        =  0.001000  dq finite difference perturbation B field
   LLRAUG    =     F  two centre corrections for induced B field



--------------------------------------------------------------------------------------------------------


 Static calculation
 charge density and potential will be updated during run
 non-spin polarized calculation
 Conjugate gradient for all bands (Freysoldt, et al. PRB 79, 241103 (2009))
 preconditioned conjugated gradient                                        
 perform sub-space diagonalisation
    before iterative eigenvector-optimisation
 modified Broyden-mixing scheme, WC =      100.0
 initial mixing is a Kerker type mixing with AMIX =  0.4000 and BMIX =      1.0000
 Hartree-type preconditioning will be used
 using additional bands           28
 reciprocal scheme for non local part
 use partial core corrections
 no Harris-corrections to forces 
 use gradient corrections 
 use of overlap-Matrix (Vanderbilt PP)
 Gauss-broadening in eV      SIGMA  =   0.01


--------------------------------------------------------------------------------------------------------


  energy-cutoff  :     1000.00
  volume of cell :     3288.85
      direct lattice vectors                 reciprocal lattice vectors
    12.325000000  0.000000000  0.000000000     0.081135903  0.046843835  0.000000000
    -6.162500000 10.673763102  0.000000000     0.000000000  0.093687670  0.000000000
     0.000000000  0.000000000 25.000000000     0.000000000  0.000000000  0.040000000

  length of vectors
    12.325000000 12.325000000 25.000000000     0.093687670  0.093687670  0.040000000


 
 k-points in units of 2pi/SCALE and weight: auto                                    
   0.00000000  0.00000000  0.00000000       1.000
 
 k-points in reciprocal lattice and weights: auto                                    
   0.00000000  0.00000000  0.00000000       1.000
 
 position of ions in fractional coordinates (direct lattice) 
   0.97245084  0.00032082  0.00056671
   0.03911838  0.13365950  0.00044017
   0.17244363  0.00029545  0.00049963
   0.23909628  0.13364792  0.00025647
   0.97245206  0.20032201  0.00048522
   0.03912836  0.33364377  0.00044415
   0.17245176  0.20035455  0.00021917
   0.23912436  0.33366572  0.00007226
   0.37246557  0.00032440  0.00045391
   0.43913747  0.13361994  0.00025834
   0.97244982  0.40030936  0.00054761
   0.03912498  0.53363679  0.00057341
   0.37241618  0.40032948  0.00000000
   0.43909960  0.53363898  0.00023241
   0.57244368  0.00031213  0.00055958
   0.63911021  0.13363175  0.00054727
   0.97245270  0.60030565  0.00064029
   0.03912449  0.73364036  0.00065451
   0.57243347  0.60030624  0.00040289
   0.63911189  0.73364188  0.00052791
   0.17245463  0.40031823  0.00028904
   0.23912018  0.53363655  0.00037851
   0.37245975  0.20029599  0.00008900
   0.43910710  0.33367342  0.00005576
   0.17245216  0.60031151  0.00052434
   0.23912337  0.73363857  0.00057513
   0.57243108  0.20028917  0.00041330
   0.63911277  0.33361863  0.00046238
   0.37243981  0.60030802  0.00036284
   0.43911609  0.73363786  0.00049419
   0.57246936  0.40032050  0.00033992
   0.63911941  0.53365087  0.00045961
   0.77244572  0.00031543  0.00059616
   0.83911628  0.13364020  0.00057531
   0.77244051  0.20030743  0.00058103
   0.83912024  0.33363573  0.00058547
   0.77244632  0.40029837  0.00058298
   0.83911898  0.53363396  0.00062110
   0.77245614  0.60030817  0.00059571
   0.83911503  0.73364318  0.00063151
   0.97245531  0.80030558  0.00065223
   0.03911471  0.93364329  0.00059805
   0.17245797  0.80031221  0.00062337
   0.23913455  0.93364719  0.00054485
   0.37245140  0.80031667  0.00055140
   0.43912449  0.93364477  0.00054143
   0.57244110  0.80031005  0.00053453
   0.63911507  0.93363899  0.00058764
   0.77244510  0.80031319  0.00060206
   0.83911661  0.93364434  0.00060683
   0.37302101  0.25122688  0.26696797
   0.42087980  0.18931315  0.26954485
   0.32515698  0.31316719  0.26458978
 
 position of ions in cartesian coordinates  (Angst):
  11.98347958  0.00342433  0.01416777
  -0.34154264  1.42664989  0.01100432
   2.12354700  0.00315355  0.01249070
   2.12325634  1.42652621  0.00641170
  10.75098721  2.13818970  0.01213047
  -1.57382270  3.56123457  0.01110375
   0.89078307  2.13853702  0.00547917
   0.89099273  3.56146885  0.00180651
   4.58863896  0.00346260  0.01134782
   4.58893648  1.42622757  0.00645846
   9.51853763  4.27280730  0.01369027
  -2.80632132  5.69591267  0.01433526
   2.12299894  4.27302204  0.00000000
   2.12335237  5.69593607  0.00581036
   7.05344483  0.00333155  0.01398950
   7.05352764  1.42635365  0.01368187
   8.28609598  6.40752033  0.01600723
  -4.03884931  7.83070339  0.01636283
   3.35585531  6.40752662  0.01007237
   3.35598594  7.83071962  0.01319763
  -0.34145776  4.27290193  0.00722612
  -0.34137895  5.69591010  0.00946273
   3.35624236  2.13791198  0.00222492
   3.35573251  3.56155103  0.00139405
  -1.57394684  6.40758280  0.01310850
  -1.57385216  7.83068434  0.01437823
   5.82093107  2.13783916  0.01033241
   5.82114012  3.56096622  0.01155939
   0.89092245  6.40754561  0.00907111
   0.89106251  7.83067670  0.01235474
   4.58870974  4.27292622  0.00849795
   4.58852320  5.69606300  0.01149026
   9.51844972  0.00336679  0.01490402
   9.51855036  1.42644387  0.01438264
   8.28593477  2.13803408  0.01452582
   8.28612680  3.56114872  0.01463668
   7.05356221  4.27268994  0.01457444
   7.05362213  5.69588251  0.01552751
   5.82112285  6.40754723  0.01489279
   5.82101669  7.83073350  0.01578780
   7.05362858  8.54227219  0.01630582
  -5.27148792  9.96548729  0.01495127
  -2.80637951  8.54234295  0.01558431
  -2.80626749  9.96552896  0.01362126
  -0.34148805  8.54239058  0.01378498
  -0.34137657  9.96550309  0.01353576
   2.12342586  8.54231992  0.01336337
   2.12354296  9.96544135  0.01469111
   4.58845581  8.54235337  0.01505154
   4.58852904  9.96549848  0.01517076
   3.04929830  2.68153618  6.67419927
   4.02070129  2.02068374  6.73862113
   2.07766701  3.34267235  6.61474440
 


--------------------------------------------------------------------------------------------------------


 k-point   1 :   0.0000 0.0000 0.0000  plane waves:  236157

 maximum and minimum number of plane-waves per node :      8440     8428

 maximum number of plane-waves:    236157
 maximum index in each direction: 
   IXMAX=   31   IYMAX=   31   IZMAX=   64
   IXMIN=  -31   IYMIN=  -31   IZMIN=  -64


 parallel 3D FFT for wavefunctions:
    minimum data exchange during FFTs selected (reduces bandwidth)
 parallel 3D FFT for charge:
    minimum data exchange during FFTs selected (reduces bandwidth)


 total amount of memory used by VASP MPI-rank0   100580. kBytes
=======================================================================

   base      :      30000. kBytes
   nonl-proj :       8229. kBytes
   fftplans  :      18352. kBytes
   grid      :      30208. kBytes
   one-center:          6. kBytes
   wavefun   :      13785. kBytes
 
     INWAV:  cpu time    0.0000: real time    0.0000
 Broyden mixing: mesh for mixing (old mesh)
   NGX = 63   NGY = 63   NGZ =129
  (NGX  =256   NGY  =256   NGZ  =540)
  gives a total of 512001 points

 initial charge density was supplied:
 charge density of overlapping atoms calculated
 number of electron     216.0000000 magnetization 
 keeping initial charge density in first step


--------------------------------------------------------------------------------------------------------


 Maximum index for augmentation-charges          471 (set IRDMAX)


--------------------------------------------------------------------------------------------------------


 First call to EWALD:  gamma=   0.119
 Maximum number of real-space cells 4x 4x 2
 Maximum number of reciprocal cells 2x 2x 4

    FEWALD:  cpu time    0.0027: real time    0.0027


--------------------------------------- Iteration      1(   1)  ---------------------------------------


vdW kernel read from vdw_kernel.bindat
  0.0000  0.2424  0.5071  0.7962  1.1119  1.4567  1.8333  2.2446  2.6937  3.1842
  3.7199  4.3049  4.9438  5.6415  6.4036  7.2358  8.1446  9.1372 10.2212 11.4050
 12.6979 14.1099 15.6519 17.3360 19.1751 21.1837 23.3773 25.7729 28.3892 31.2465
 34.3669 37.7748 41.4965 45.5611 50.0000
 
    POTLOK:  cpu time    4.6215: real time    4.6757
    SETDIJ:  cpu time    0.0536: real time    0.0540
    TRIAL :  cpu time    2.0828: real time    2.1115
    CORREC:  cpu time    0.0009: real time    0.0010
    --------------------------------------------
      LOOP:  cpu time    6.7627: real time    6.8643

 eigenvalue-minimisations  :   288
 total energy-change (2. order) : 0.2818417E+04  (-0.1021158E+05)
 number of electron     216.0000000 magnetization 
 augmentation part      216.0000000 magnetization 

 Free energy of the ion-electron system (eV)
  ---------------------------------------------------
  alpha Z        PSCENC =        47.94900195
  Ewald energy   TEWEN  =     42826.26722571
  -Hartree energ DENC   =    -48895.46372349
  -exchange      EXHF   =         0.00000000
  -V(xc)+E(xc)   XCENC  =       352.72947778
  PAW double counting   =      6601.42964284    -6299.49404826
  entropy T*S    EENTRO =        -0.00048716
  eigenvalues    EBANDS =      -372.41261899
  atomic energy  EATOM  =      8557.41276814
  ---------------------------------------------------
  free energy    TOTEN  =      2818.41723852 eV

  energy without entropy =     2818.41772568  energy(sigma->0) =     2818.41748210


--------------------------------------------------------------------------------------------------------




--------------------------------------- Iteration      1(   2)  ---------------------------------------


    TRIAL :  cpu time    2.8855: real time    2.9160
    CORREC:  cpu time    0.0001: real time    0.0002
    --------------------------------------------
      LOOP:  cpu time    2.9152: real time    2.9658

 eigenvalue-minimisations  :   448
 total energy-change (2. order) :-0.2331029E+04  (-0.2177634E+04)
 number of electron     216.0000000 magnetization 
 augmentation part      216.0000000 magnetization 

 Free energy of the ion-electron system (eV)
  ---------------------------------------------------
  alpha Z        PSCENC =        47.94900195
  Ewald energy   TEWEN  =     42826.26722571
  -Hartree energ DENC   =    -48895.46372349
  -exchange      EXHF   =         0.00000000
  -V(xc)+E(xc)   XCENC  =       352.72947778
  PAW double counting   =      6601.42964284    -6299.49404826
  entropy T*S    EENTRO =        -0.00000000
  eigenvalues    EBANDS =     -2703.44191306
  atomic energy  EATOM  =      8557.41276814
  ---------------------------------------------------
  free energy    TOTEN  =       487.38843161 eV

  energy without entropy =      487.38843161  energy(sigma->0) =      487.38843161


--------------------------------------------------------------------------------------------------------




--------------------------------------- Iteration      1(   3)  ---------------------------------------


    TRIAL :  cpu time    2.3651: real time    2.3896
    CORREC:  cpu time    0.0001: real time    0.0001
    --------------------------------------------
      LOOP:  cpu time    2.4479: real time    2.4733

 eigenvalue-minimisations  :   344
 total energy-change (2. order) :-0.8377307E+03  (-0.8254686E+03)
 number of electron     216.0000000 magnetization 
 augmentation part      216.0000000 magnetization 

 Free energy of the ion-electron system (eV)
  ---------------------------------------------------
  alpha Z        PSCENC =        47.94900195
  Ewald energy   TEWEN  =     42826.26722571
  -Hartree energ DENC   =    -48895.46372349
  -exchange      EXHF   =         0.00000000
  -V(xc)+E(xc)   XCENC  =       352.72947778
  PAW double counting   =      6601.42964284    -6299.49404826
  entropy T*S    EENTRO =        -0.00000000
  eigenvalues    EBANDS =     -3541.17265233
  atomic energy  EATOM  =      8557.41276814
  ---------------------------------------------------
  free energy    TOTEN  =      -350.34230766 eV

  energy without entropy =     -350.34230766  energy(sigma->0) =     -350.34230766


--------------------------------------------------------------------------------------------------------




--------------------------------------- Iteration      1(   4)  ---------------------------------------


    TRIAL :  cpu time    2.3132: real time    2.3343
    CORREC:  cpu time    0.0001: real time    0.0001
    --------------------------------------------
      LOOP:  cpu time    2.3663: real time    2.3880

 eigenvalue-minimisations  :   336
 total energy-change (2. order) :-0.7942738E+02  (-0.7824291E+02)
 number of electron     216.0000000 magnetization 
 augmentation part      216.0000000 magnetization 

 Free energy of the ion-electron system (eV)
  ---------------------------------------------------
  alpha Z        PSCENC =        47.94900195
  Ewald energy   TEWEN  =     42826.26722571
  -Hartree energ DENC   =    -48895.46372349
  -exchange      EXHF   =         0.00000000
  -V(xc)+E(xc)   XCENC  =       352.72947778
  PAW double counting   =      6601.42964284    -6299.49404826
  entropy T*S    EENTRO =        -0.00000000
  eigenvalues    EBANDS =     -3620.60002789
  atomic energy  EATOM  =      8557.41276814
  ---------------------------------------------------
  free energy    TOTEN  =      -429.76968323 eV

  energy without entropy =     -429.76968323  energy(sigma->0) =     -429.76968323


--------------------------------------------------------------------------------------------------------




--------------------------------------- Iteration      1(   5)  ---------------------------------------


    TRIAL :  cpu time    2.4051: real time    2.4270
    CORREC:  cpu time    0.0001: real time    0.0001
    CHARGE:  cpu time    0.1827: real time    0.1849
    --------------------------------------------
      LOOP:  cpu time    2.6540: real time    2.6787

 eigenvalue-minimisations  :   352
 total energy-change (2. order) :-0.2488951E+01  (-0.2472921E+01)
 number of electron     216.0000000 magnetization 
 augmentation part       -0.1501105 magnetization 

 Free energy of the ion-electron system (eV)
  ---------------------------------------------------
  alpha Z        PSCENC =        47.94900195
  Ewald energy   TEWEN  =     42826.26722571
  -Hartree energ DENC   =    -48895.46372349
  -exchange      EXHF   =         0.00000000
  -V(xc)+E(xc)   XCENC  =       352.72947778
  PAW double counting   =      6601.42964284    -6299.49404826
  entropy T*S    EENTRO =        -0.00000000
  eigenvalues    EBANDS =     -3623.08897938
  atomic energy  EATOM  =      8557.41276814
  ---------------------------------------------------
  free energy    TOTEN  =      -432.25863471 eV

  energy without entropy =     -432.25863471  energy(sigma->0) =     -432.25863471


--------------------------------------------------------------------------------------------------------




--------------------------------------- Iteration      1(   6)  ---------------------------------------


    POTLOK:  cpu time    4.3411: real time    4.3759
    SETDIJ:  cpu time    0.0519: real time    0.0521
    TRIAL :  cpu time    1.1768: real time    1.1883
    CORREC:  cpu time    4.8424: real time    4.8783
    CHARGE:  cpu time    0.1824: real time    0.1842
    --------------------------------------------
      LOOP:  cpu time   10.6391: real time   10.7236

 eigenvalue-minimisations  :     0
 total energy-change (2. order) : 0.6350859E+02  (-0.2145753E+02)
 number of electron     216.0000000 magnetization 
 augmentation part       -0.2786586 magnetization 

 Free energy of the ion-electron system (eV)
  ---------------------------------------------------
  alpha Z        PSCENC =        47.94900195
  Ewald energy   TEWEN  =     42826.26722571
  -Hartree energ DENC   =    -50459.38415943
  -exchange      EXHF   =         0.00000000
  -V(xc)+E(xc)   XCENC  =       408.11575000
  PAW double counting   =     52772.14371109   -52494.27538494
  entropy T*S    EENTRO =        -0.00000000
  eigenvalues    EBANDS =     -2026.97896028
  atomic energy  EATOM  =      8557.41276814
  ---------------------------------------------------
  free energy    TOTEN  =      -368.75004774 eV

  energy without entropy =     -368.75004774  energy(sigma->0) =     -368.75004774


--------------------------------------------------------------------------------------------------------




--------------------------------------- Iteration      1(   7)  ---------------------------------------


    POTLOK:  cpu time    4.3836: real time    4.4148
    SETDIJ:  cpu time    0.0522: real time    0.0524
    TRIAL :  cpu time    1.1654: real time    1.1768
    CORREC:  cpu time    4.8335: real time    4.8703
    CHARGE:  cpu time    0.1813: real time    0.1830
    --------------------------------------------
      LOOP:  cpu time   10.6504: real time   10.7338

 eigenvalue-minimisations  :     0
 total energy-change (2. order) :-0.2156883E+02  (-0.2224236E+01)
 number of electron     216.0000000 magnetization 
 augmentation part       -0.3314226 magnetization 

 Free energy of the ion-electron system (eV)
  ---------------------------------------------------
  alpha Z        PSCENC =        47.94900195
  Ewald energy   TEWEN  =     42826.26722571
  -Hartree energ DENC   =    -49863.25617044
  -exchange      EXHF   =         0.00000000
  -V(xc)+E(xc)   XCENC  =       385.76099810
  PAW double counting   =     68565.64386582   -68280.78464984
  entropy T*S    EENTRO =        -0.00000000
  eigenvalues    EBANDS =     -2629.31192053
  atomic energy  EATOM  =      8557.41276814
  ---------------------------------------------------
  free energy    TOTEN  =      -390.31888108 eV

  energy without entropy =     -390.31888108  energy(sigma->0) =     -390.31888108


--------------------------------------------------------------------------------------------------------




--------------------------------------- Iteration      1(   8)  ---------------------------------------


    POTLOK:  cpu time    4.3355: real time    4.3670
    SETDIJ:  cpu time    0.0519: real time    0.0521
    TRIAL :  cpu time    1.1694: real time    1.1809
    CORREC:  cpu time    4.8350: real time    4.8837
    CHARGE:  cpu time    0.1817: real time    0.1835
    --------------------------------------------
      LOOP:  cpu time   10.6280: real time   10.7239

 eigenvalue-minimisations  :     0
 total energy-change (2. order) :-0.2220796E+01  (-0.6372995E+00)
 number of electron     216.0000000 magnetization 
 augmentation part       -0.3544135 magnetization 

 Free energy of the ion-electron system (eV)
  ---------------------------------------------------
  alpha Z        PSCENC =        47.94900195
  Ewald energy   TEWEN  =     42826.26722571
  -Hartree energ DENC   =    -49832.57779272
  -exchange      EXHF   =         0.00000000
  -V(xc)+E(xc)   XCENC  =       385.19202087
  PAW double counting   =     73857.22809707   -73571.22319056
  entropy T*S    EENTRO =        -0.00000000
  eigenvalues    EBANDS =     -2662.78780785
  atomic energy  EATOM  =      8557.41276814
  ---------------------------------------------------
  free energy    TOTEN  =      -392.53967740 eV

  energy without entropy =     -392.53967740  energy(sigma->0) =     -392.53967740


--------------------------------------------------------------------------------------------------------




--------------------------------------- Iteration      1(   9)  ---------------------------------------


    POTLOK:  cpu time    4.3499: real time    4.3802
    SETDIJ:  cpu time    0.0521: real time    0.0523
    TRIAL :  cpu time    1.1638: real time    1.1758
    CORREC:  cpu time    4.8251: real time    4.8647
    CHARGE:  cpu time    0.1815: real time    0.1836
    --------------------------------------------
      LOOP:  cpu time   10.6213: real time   10.7063

 eigenvalue-minimisations  :     0
 total energy-change (2. order) :-0.6375093E+00  (-0.2563997E+00)
 number of electron     216.0000000 magnetization 
 augmentation part       -0.3635935 magnetization 

 Free energy of the ion-electron system (eV)
  ---------------------------------------------------
  alpha Z        PSCENC =        47.94900195
  Ewald energy   TEWEN  =     42826.26722571
  -Hartree energ DENC   =    -49848.09624671
  -exchange      EXHF   =         0.00000000
  -V(xc)+E(xc)   XCENC  =       385.64011140
  PAW double counting   =     78312.87051126   -78026.39200318
  entropy T*S    EENTRO =        -0.00000000
  eigenvalues    EBANDS =     -2648.82855525
  atomic energy  EATOM  =      8557.41276814
  ---------------------------------------------------
  free energy    TOTEN  =      -393.17718668 eV

  energy without entropy =     -393.17718668  energy(sigma->0) =     -393.17718668


--------------------------------------------------------------------------------------------------------




--------------------------------------- Iteration      1(  10)  ---------------------------------------


    POTLOK:  cpu time    4.3613: real time    4.3910
    SETDIJ:  cpu time    0.0520: real time    0.0522
    TRIAL :  cpu time    1.1644: real time    1.1760
    CORREC:  cpu time    4.8311: real time    4.8663
    CHARGE:  cpu time    0.1814: real time    0.1833
    --------------------------------------------
      LOOP:  cpu time   10.6588: real time   10.7401

 eigenvalue-minimisations  :     0
 total energy-change (2. order) :-0.2555417E+00  (-0.1187543E+00)
 number of electron     216.0000000 magnetization 
 augmentation part       -0.3604387 magnetization 

 Free energy of the ion-electron system (eV)
  ---------------------------------------------------
  alpha Z        PSCENC =        47.94900195
  Ewald energy   TEWEN  =     42826.26722571
  -Hartree energ DENC   =    -49843.10391192
  -exchange      EXHF   =         0.00000000
  -V(xc)+E(xc)   XCENC  =       385.55691922
  PAW double counting   =     80260.01374082   -79973.21995648
  entropy T*S    EENTRO =        -0.00000000
  eigenvalues    EBANDS =     -2654.30851579
  atomic energy  EATOM  =      8557.41276814
  ---------------------------------------------------
  free energy    TOTEN  =      -393.43272834 eV

  energy without entropy =     -393.43272834  energy(sigma->0) =     -393.43272834


--------------------------------------------------------------------------------------------------------




--------------------------------------- Iteration      1(  11)  ---------------------------------------


    POTLOK:  cpu time    4.3605: real time    4.3916
    SETDIJ:  cpu time    0.0522: real time    0.0524
    TRIAL :  cpu time    1.1707: real time    1.1821
    CORREC:  cpu time    4.8420: real time    4.8781
    CHARGE:  cpu time    0.1818: real time    0.1836
    --------------------------------------------
      LOOP:  cpu time   10.6454: real time   10.7263

 eigenvalue-minimisations  :     0
 total energy-change (2. order) :-0.1180891E+00  (-0.4682019E-01)
 number of electron     216.0000000 magnetization 
 augmentation part       -0.3570501 magnetization 

 Free energy of the ion-electron system (eV)
  ---------------------------------------------------
  alpha Z        PSCENC =        47.94900195
  Ewald energy   TEWEN  =     42826.26722571
  -Hartree energ DENC   =    -49833.89734387
  -exchange      EXHF   =         0.00000000
  -V(xc)+E(xc)   XCENC  =       385.45456531
  PAW double counting   =     80335.55954213   -80048.70302382
  entropy T*S    EENTRO =        -0.00000000
  eigenvalues    EBANDS =     -2663.59355304
  atomic energy  EATOM  =      8557.41276814
  ---------------------------------------------------
  free energy    TOTEN  =      -393.55081749 eV

  energy without entropy =     -393.55081749  energy(sigma->0) =     -393.55081749


--------------------------------------------------------------------------------------------------------




--------------------------------------- Iteration      1(  12)  ---------------------------------------


    POTLOK:  cpu time    4.3431: real time    4.3729
    SETDIJ:  cpu time    0.0521: real time    0.0523
    TRIAL :  cpu time    1.1644: real time    1.1757
    CORREC:  cpu time    4.8321: real time    4.8678
    CHARGE:  cpu time    0.1807: real time    0.1825
    --------------------------------------------
      LOOP:  cpu time   10.6443: real time   10.7241

 eigenvalue-minimisations  :     0
 total energy-change (2. order) :-0.4666994E-01  (-0.1452646E-01)
 number of electron     216.0000000 magnetization 
 augmentation part       -0.3562287 magnetization 

 Free energy of the ion-electron system (eV)
  ---------------------------------------------------
  alpha Z        PSCENC =        47.94900195
  Ewald energy   TEWEN  =     42826.26722571
  -Hartree energ DENC   =    -49830.49012813
  -exchange      EXHF   =         0.00000000
  -V(xc)+E(xc)   XCENC  =       385.36760074
  PAW double counting   =     79781.73704505   -79494.94932072
  entropy T*S    EENTRO =        -0.00000000
  eigenvalues    EBANDS =     -2666.89168016
  atomic energy  EATOM  =      8557.41276814
  ---------------------------------------------------
  free energy    TOTEN  =      -393.59748742 eV

  energy without entropy =     -393.59748742  energy(sigma->0) =     -393.59748742


--------------------------------------------------------------------------------------------------------




--------------------------------------- Iteration      1(  13)  ---------------------------------------


    POTLOK:  cpu time    4.3500: real time    4.3797
    SETDIJ:  cpu time    0.0520: real time    0.0523
    TRIAL :  cpu time    1.1638: real time    1.1754
    CORREC:  cpu time    4.8550: real time    4.8898
    CHARGE:  cpu time    0.1825: real time    0.1842
    --------------------------------------------
      LOOP:  cpu time   10.6466: real time   10.7272

 eigenvalue-minimisations  :     0
 total energy-change (2. order) :-0.1451242E-01  (-0.4323340E-02)
 number of electron     216.0000000 magnetization 
 augmentation part       -0.3559053 magnetization 

 Free energy of the ion-electron system (eV)
  ---------------------------------------------------
  alpha Z        PSCENC =        47.94900195
  Ewald energy   TEWEN  =     42826.26722571
  -Hartree energ DENC   =    -49830.36954875
  -exchange      EXHF   =         0.00000000
  -V(xc)+E(xc)   XCENC  =       385.32984302
  PAW double counting   =     79309.81943553   -79023.09595886
  entropy T*S    EENTRO =        -0.00000000
  eigenvalues    EBANDS =     -2666.92476658
  atomic energy  EATOM  =      8557.41276814
  ---------------------------------------------------
  free energy    TOTEN  =      -393.61199984 eV

  energy without entropy =     -393.61199984  energy(sigma->0) =     -393.61199984


--------------------------------------------------------------------------------------------------------




--------------------------------------- Iteration      1(  14)  ---------------------------------------


    POTLOK:  cpu time    4.3458: real time    4.3941
    SETDIJ:  cpu time    0.0521: real time    0.0523
    TRIAL :  cpu time    1.1643: real time    1.1759
    CORREC:  cpu time    4.8289: real time    4.8654
    CHARGE:  cpu time    0.1817: real time    0.1836
    --------------------------------------------
      LOOP:  cpu time   10.6173: real time   10.7201

 eigenvalue-minimisations  :     0
 total energy-change (2. order) :-0.4320531E-02  (-0.1533042E-02)
 number of electron     216.0000000 magnetization 
 augmentation part       -0.3562208 magnetization 

 Free energy of the ion-electron system (eV)
  ---------------------------------------------------
  alpha Z        PSCENC =        47.94900195
  Ewald energy   TEWEN  =     42826.26722571
  -Hartree energ DENC   =    -49830.26406470
  -exchange      EXHF   =         0.00000000
  -V(xc)+E(xc)   XCENC  =       385.30620558
  PAW double counting   =     79113.46436944   -78826.77196287
  entropy T*S    EENTRO =        -0.00000000
  eigenvalues    EBANDS =     -2666.97986362
  atomic energy  EATOM  =      8557.41276814
  ---------------------------------------------------
  free energy    TOTEN  =      -393.61632037 eV

  energy without entropy =     -393.61632037  energy(sigma->0) =     -393.61632037


--------------------------------------------------------------------------------------------------------




--------------------------------------- Iteration      1(  15)  ---------------------------------------


    POTLOK:  cpu time    4.3466: real time    4.3786
    SETDIJ:  cpu time    0.0521: real time    0.0566
    TRIAL :  cpu time    1.1606: real time    1.1750
    CORREC:  cpu time    4.8253: real time    4.8679
    CHARGE:  cpu time    0.1812: real time    0.1837
    --------------------------------------------
      LOOP:  cpu time   10.6150: real time   10.7126

 eigenvalue-minimisations  :     0
 total energy-change (2. order) :-0.1531337E-02  (-0.7656756E-03)
 number of electron     216.0000000 magnetization 
 augmentation part       -0.3563085 magnetization 

 Free energy of the ion-electron system (eV)
  ---------------------------------------------------
  alpha Z        PSCENC =        47.94900195
  Ewald energy   TEWEN  =     42826.26722571
  -Hartree energ DENC   =    -49829.91123821
  -exchange      EXHF   =         0.00000000
  -V(xc)+E(xc)   XCENC  =       385.27728676
  PAW double counting   =     79040.97049107   -78754.28582020
  entropy T*S    EENTRO =        -0.00000000
  eigenvalues    EBANDS =     -2667.29756692
  atomic energy  EATOM  =      8557.41276814
  ---------------------------------------------------
  free energy    TOTEN  =      -393.61785171 eV

  energy without entropy =     -393.61785171  energy(sigma->0) =     -393.61785171


--------------------------------------------------------------------------------------------------------




--------------------------------------- Iteration      1(  16)  ---------------------------------------


    POTLOK:  cpu time    4.3248: real time    4.3617
    SETDIJ:  cpu time    0.0520: real time    0.0522
    TRIAL :  cpu time    1.1630: real time    1.1766
    CORREC:  cpu time    4.8358: real time    4.8771
    CHARGE:  cpu time    0.1822: real time    0.1840
    --------------------------------------------
      LOOP:  cpu time   10.6150: real time   10.7110

 eigenvalue-minimisations  :     0
 total energy-change (2. order) :-0.7639803E-03  (-0.4192713E-03)
 number of electron     216.0000000 magnetization 
 augmentation part       -0.3563469 magnetization 

 Free energy of the ion-electron system (eV)
  ---------------------------------------------------
  alpha Z        PSCENC =        47.94900195
  Ewald energy   TEWEN  =     42826.26722571
  -Hartree energ DENC   =    -49830.38116484
  -exchange      EXHF   =         0.00000000
  -V(xc)+E(xc)   XCENC  =       385.29356017
  PAW double counting   =     78969.07317562   -78682.39520789
  entropy T*S    EENTRO =        -0.00000000
  eigenvalues    EBANDS =     -2666.83797456
  atomic energy  EATOM  =      8557.41276814
  ---------------------------------------------------
  free energy    TOTEN  =      -393.61861569 eV

  energy without entropy =     -393.61861569  energy(sigma->0) =     -393.61861569


--------------------------------------------------------------------------------------------------------




--------------------------------------- Iteration      1(  17)  ---------------------------------------


    POTLOK:  cpu time    4.3381: real time    4.3795
    SETDIJ:  cpu time    0.0521: real time    0.0522
    TRIAL :  cpu time    1.1644: real time    1.1767
    CORREC:  cpu time    4.8281: real time    4.8632
    CHARGE:  cpu time    0.1818: real time    0.1836
    --------------------------------------------
      LOOP:  cpu time   10.6011: real time   10.6934

 eigenvalue-minimisations  :     0
 total energy-change (2. order) :-0.4192653E-03  (-0.1699521E-03)
 number of electron     216.0000000 magnetization 
 augmentation part       -0.3563206 magnetization 

 Free energy of the ion-electron system (eV)
  ---------------------------------------------------
  alpha Z        PSCENC =        47.94900195
  Ewald energy   TEWEN  =     42826.26722571
  -Hartree energ DENC   =    -49830.52532567
  -exchange      EXHF   =         0.00000000
  -V(xc)+E(xc)   XCENC  =       385.29796176
  PAW double counting   =     78909.81752472   -78623.13717779
  entropy T*S    EENTRO =        -0.00000000
  eigenvalues    EBANDS =     -2666.70101378
  atomic energy  EATOM  =      8557.41276814
  ---------------------------------------------------
  free energy    TOTEN  =      -393.61903495 eV

  energy without entropy =     -393.61903495  energy(sigma->0) =     -393.61903495


--------------------------------------------------------------------------------------------------------




--------------------------------------- Iteration      1(  18)  ---------------------------------------


    POTLOK:  cpu time    4.3498: real time    4.3810
    SETDIJ:  cpu time    0.0521: real time    0.0523
    TRIAL :  cpu time    1.1650: real time    1.1765
    CORREC:  cpu time    4.8349: real time    4.8724
    CHARGE:  cpu time    0.1817: real time    0.1835
    --------------------------------------------
      LOOP:  cpu time   10.6305: real time   10.7165

 eigenvalue-minimisations  :     0
 total energy-change (2. order) :-0.1706722E-03  (-0.5847916E-04)
 number of electron     216.0000000 magnetization 
 augmentation part       -0.3563414 magnetization 

 Free energy of the ion-electron system (eV)
  ---------------------------------------------------
  alpha Z        PSCENC =        47.94900195
  Ewald energy   TEWEN  =     42826.26722571
  -Hartree energ DENC   =    -49830.59854297
  -exchange      EXHF   =         0.00000000
  -V(xc)+E(xc)   XCENC  =       385.30020857
  PAW double counting   =     78901.27288041   -78614.58842422
  entropy T*S    EENTRO =        -0.00000000
  eigenvalues    EBANDS =     -2666.63432321
  atomic energy  EATOM  =      8557.41276814
  ---------------------------------------------------
  free energy    TOTEN  =      -393.61920563 eV

  energy without entropy =     -393.61920563  energy(sigma->0) =     -393.61920563


--------------------------------------------------------------------------------------------------------




--------------------------------------- Iteration      1(  19)  ---------------------------------------


    POTLOK:  cpu time    4.3485: real time    4.3810
    SETDIJ:  cpu time    0.0569: real time    0.0571
    TRIAL :  cpu time    1.1635: real time    1.1751
    CORREC:  cpu time    4.8432: real time    4.8821
    CHARGE:  cpu time    0.1825: real time    0.1844
    --------------------------------------------
      LOOP:  cpu time   10.6636: real time   10.7580

 eigenvalue-minimisations  :     0
 total energy-change (2. order) :-0.5882392E-04  (-0.2169798E-04)
 number of electron     216.0000000 magnetization 
 augmentation part       -0.3563582 magnetization 

 Free energy of the ion-electron system (eV)
  ---------------------------------------------------
  alpha Z        PSCENC =        47.94900195
  Ewald energy   TEWEN  =     42826.26722571
  -Hartree energ DENC   =    -49830.65915791
  -exchange      EXHF   =         0.00000000
  -V(xc)+E(xc)   XCENC  =       385.30199367
  PAW double counting   =     78919.26701250   -78632.58026457
  entropy T*S    EENTRO =        -0.00000000
  eigenvalues    EBANDS =     -2666.57784396
  atomic energy  EATOM  =      8557.41276814
  ---------------------------------------------------
  free energy    TOTEN  =      -393.61926445 eV

  energy without entropy =     -393.61926445  energy(sigma->0) =     -393.61926445


--------------------------------------------------------------------------------------------------------




--------------------------------------- Iteration      1(  20)  ---------------------------------------


    POTLOK:  cpu time    4.3635: real time    4.3962
    SETDIJ:  cpu time    0.0521: real time    0.0522
    TRIAL :  cpu time    1.1562: real time    1.1775
    CORREC:  cpu time    4.8248: real time    4.8613
    CHARGE:  cpu time    0.1815: real time    0.1833
    --------------------------------------------
      LOOP:  cpu time   10.6235: real time   10.7184

 eigenvalue-minimisations  :     0
 total energy-change (2. order) :-0.2183473E-04  (-0.1011193E-04)
 number of electron     216.0000000 magnetization 
 augmentation part       -0.3563405 magnetization 

 Free energy of the ion-electron system (eV)
  ---------------------------------------------------
  alpha Z        PSCENC =        47.94900195
  Ewald energy   TEWEN  =     42826.26722571
  -Hartree energ DENC   =    -49830.64714216
  -exchange      EXHF   =         0.00000000
  -V(xc)+E(xc)   XCENC  =       385.30202201
  PAW double counting   =     78940.13982051   -78653.45228529
  entropy T*S    EENTRO =        -0.00000000
  eigenvalues    EBANDS =     -2666.59069715
  atomic energy  EATOM  =      8557.41276814
  ---------------------------------------------------
  free energy    TOTEN  =      -393.61928628 eV

  energy without entropy =     -393.61928628  energy(sigma->0) =     -393.61928628


--------------------------------------------------------------------------------------------------------




--------------------------------------- Iteration      1(  21)  ---------------------------------------


    POTLOK:  cpu time    4.3374: real time    4.3672
    SETDIJ:  cpu time    0.0520: real time    0.0521
    TRIAL :  cpu time    1.1632: real time    1.1751
    CORREC:  cpu time    4.8293: real time    4.8656
    CHARGE:  cpu time    0.1806: real time    0.1825
    --------------------------------------------
      LOOP:  cpu time   10.6446: real time   10.7261

 eigenvalue-minimisations  :     0
 total energy-change (2. order) :-0.1011859E-04  (-0.5104054E-05)
 number of electron     216.0000000 magnetization 
 augmentation part       -0.3563218 magnetization 

 Free energy of the ion-electron system (eV)
  ---------------------------------------------------
  alpha Z        PSCENC =        47.94900195
  Ewald energy   TEWEN  =     42826.26722571
  -Hartree energ DENC   =    -49830.62507529
  -exchange      EXHF   =         0.00000000
  -V(xc)+E(xc)   XCENC  =       385.30176197
  PAW double counting   =     78953.66129358   -78666.97387846
  entropy T*S    EENTRO =        -0.00000000
  eigenvalues    EBANDS =     -2666.61239400
  atomic energy  EATOM  =      8557.41276814
  ---------------------------------------------------
  free energy    TOTEN  =      -393.61929640 eV

  energy without entropy =     -393.61929640  energy(sigma->0) =     -393.61929640


--------------------------------------------------------------------------------------------------------




--------------------------------------- Iteration      1(  22)  ---------------------------------------


    POTLOK:  cpu time    4.3344: real time    4.3668
    SETDIJ:  cpu time    0.0520: real time    0.0522
    TRIAL :  cpu time    1.1707: real time    1.1835
    CORREC:  cpu time    4.8561: real time    4.8937
    CHARGE:  cpu time    0.1813: real time    0.1830
    --------------------------------------------
      LOOP:  cpu time   10.6243: real time   10.7319

 eigenvalue-minimisations  :     0
 total energy-change (2. order) :-0.5069916E-05  (-0.2530583E-05)
 number of electron     216.0000000 magnetization 
 augmentation part       -0.3563060 magnetization 

 Free energy of the ion-electron system (eV)
  ---------------------------------------------------
  alpha Z        PSCENC =        47.94900195
  Ewald energy   TEWEN  =     42826.26722571
  -Hartree energ DENC   =    -49830.60571225
  -exchange      EXHF   =         0.00000000
  -V(xc)+E(xc)   XCENC  =       385.30105146
  PAW double counting   =     78957.93745326   -78671.25025952
  entropy T*S    EENTRO =        -0.00000000
  eigenvalues    EBANDS =     -2666.63083023
  atomic energy  EATOM  =      8557.41276814
  ---------------------------------------------------
  free energy    TOTEN  =      -393.61930147 eV

  energy without entropy =     -393.61930147  energy(sigma->0) =     -393.61930147


--------------------------------------------------------------------------------------------------------




--------------------------------------- Iteration      1(  23)  ---------------------------------------


    POTLOK:  cpu time    4.3340: real time    4.3668
    SETDIJ:  cpu time    0.0520: real time    0.0522
    TRIAL :  cpu time    1.1622: real time    1.1749
    CORREC:  cpu time    4.8365: real time    4.8720
    CHARGE:  cpu time    0.1812: real time    0.1830
    --------------------------------------------
      LOOP:  cpu time   10.6066: real time   10.6908

 eigenvalue-minimisations  :     0
 total energy-change (2. order) :-0.2524263E-05  (-0.1094846E-05)
 number of electron     216.0000000 magnetization 
 augmentation part       -0.3563154 magnetization 

 Free energy of the ion-electron system (eV)
  ---------------------------------------------------
  alpha Z        PSCENC =        47.94900195
  Ewald energy   TEWEN  =     42826.26722571
  -Hartree energ DENC   =    -49830.60044869
  -exchange      EXHF   =         0.00000000
  -V(xc)+E(xc)   XCENC  =       385.30107547
  PAW double counting   =     78956.86024864   -78670.17328867
  entropy T*S    EENTRO =        -0.00000000
  eigenvalues    EBANDS =     -2666.63588655
  atomic energy  EATOM  =      8557.41276814
  ---------------------------------------------------
  free energy    TOTEN  =      -393.61930400 eV

  energy without entropy =     -393.61930400  energy(sigma->0) =     -393.61930400


--------------------------------------------------------------------------------------------------------




--------------------------------------- Iteration      1(  24)  ---------------------------------------


    POTLOK:  cpu time    4.3491: real time    4.3802
    SETDIJ:  cpu time    0.0521: real time    0.0523
    TRIAL :  cpu time    1.1654: real time    1.1768
    CORREC:  cpu time    4.8316: real time    4.8685
    CHARGE:  cpu time    0.1819: real time    0.1838
    --------------------------------------------
      LOOP:  cpu time   10.6080: real time   10.6904

 eigenvalue-minimisations  :     0
 total energy-change (2. order) :-0.1093140E-05  (-0.5058812E-06)
 number of electron     216.0000000 magnetization 
 augmentation part       -0.3563240 magnetization 

 Free energy of the ion-electron system (eV)
  ---------------------------------------------------
  alpha Z        PSCENC =        47.94900195
  Ewald energy   TEWEN  =     42826.26722571
  -Hartree energ DENC   =    -49830.58973095
  -exchange      EXHF   =         0.00000000
  -V(xc)+E(xc)   XCENC  =       385.30074506
  PAW double counting   =     78954.49068857   -78667.80366686
  entropy T*S    EENTRO =        -0.00000000
  eigenvalues    EBANDS =     -2666.64633672
  atomic energy  EATOM  =      8557.41276814
  ---------------------------------------------------
  free energy    TOTEN  =      -393.61930509 eV

  energy without entropy =     -393.61930509  energy(sigma->0) =     -393.61930509


--------------------------------------------------------------------------------------------------------




--------------------------------------- Iteration      1(  25)  ---------------------------------------


    POTLOK:  cpu time    4.3471: real time    4.3769
    SETDIJ:  cpu time    0.0522: real time    0.0524
    TRIAL :  cpu time    1.1630: real time    1.1742
    CORREC:  cpu time    4.8202: real time    4.8584
    CHARGE:  cpu time    0.1824: real time    0.1841
    --------------------------------------------
      LOOP:  cpu time   10.5776: real time   10.7289

 eigenvalue-minimisations  :     0
 total energy-change (2. order) :-0.4888134E-06  (-0.2541862E-06)
 number of electron     216.0000000 magnetization 
 augmentation part       -0.3563324 magnetization 

 Free energy of the ion-electron system (eV)
  ---------------------------------------------------
  alpha Z        PSCENC =        47.94900195
  Ewald energy   TEWEN  =     42826.26722571
  -Hartree energ DENC   =    -49830.59606785
  -exchange      EXHF   =         0.00000000
  -V(xc)+E(xc)   XCENC  =       385.30097484
  PAW double counting   =     78952.56888726   -78665.88189346
  entropy T*S    EENTRO =        -0.00000000
  eigenvalues    EBANDS =     -2666.64020217
  atomic energy  EATOM  =      8557.41276814
  ---------------------------------------------------
  free energy    TOTEN  =      -393.61930558 eV

  energy without entropy =     -393.61930558  energy(sigma->0) =     -393.61930558


--------------------------------------------------------------------------------------------------------




--------------------------------------- Iteration      1(  26)  ---------------------------------------


    POTLOK:  cpu time    4.3495: real time    4.3807
    SETDIJ:  cpu time    0.0544: real time    0.0546
    TRIAL :  cpu time    1.1784: real time    1.1903
    CORREC:  cpu time    4.8221: real time    4.8609
    CHARGE:  cpu time    0.1821: real time    0.1838
    --------------------------------------------
      LOOP:  cpu time   10.6233: real time   10.7078

 eigenvalue-minimisations  :     0
 total energy-change (2. order) :-0.2237502E-06  (-0.1212041E-06)
 number of electron     216.0000000 magnetization 
 augmentation part       -0.3563331 magnetization 

 Free energy of the ion-electron system (eV)
  ---------------------------------------------------
  alpha Z        PSCENC =        47.94900195
  Ewald energy   TEWEN  =     42826.26722571
  -Hartree energ DENC   =    -49830.59696744
  -exchange      EXHF   =         0.00000000
  -V(xc)+E(xc)   XCENC  =       385.30090605
  PAW double counting   =     78951.21270345   -78664.52571444
  entropy T*S    EENTRO =        -0.00000000
  eigenvalues    EBANDS =     -2666.63922923
  atomic energy  EATOM  =      8557.41276814
  ---------------------------------------------------
  free energy    TOTEN  =      -393.61930580 eV

  energy without entropy =     -393.61930580  energy(sigma->0) =     -393.61930580


--------------------------------------------------------------------------------------------------------




--------------------------------------- Iteration      1(  27)  ---------------------------------------


    POTLOK:  cpu time    4.3350: real time    4.3653
    SETDIJ:  cpu time    0.0521: real time    0.0523
    TRIAL :  cpu time    1.1623: real time    1.1736
    CORREC:  cpu time    4.8324: real time    4.8775
    EDDIAG:  cpu time    0.4371: real time    0.4420
    CHARGE:  cpu time    0.1806: real time    0.1824
    --------------------------------------------
      LOOP:  cpu time   11.0740: real time   11.1712

 eigenvalue-minimisations  :     0
 total energy-change (2. order) :-0.9982614E-07  (-0.5122848E-07)
 number of electron     216.0000000 magnetization 
 augmentation part       -0.3563337 magnetization 

 Free energy of the ion-electron system (eV)
  ---------------------------------------------------
  alpha Z        PSCENC =        47.94900195
  Ewald energy   TEWEN  =     42826.26722571
  -Hartree energ DENC   =    -49830.60122604
  -exchange      EXHF   =         0.00000000
  -V(xc)+E(xc)   XCENC  =       385.30103355
  PAW double counting   =     78950.60182243   -78663.91490587
  entropy T*S    EENTRO =        -0.00000000
  eigenvalues    EBANDS =     -2666.63502578
  atomic energy  EATOM  =      8557.41276814
  ---------------------------------------------------
  free energy    TOTEN  =      -393.61930590 eV

  energy without entropy =     -393.61930590  energy(sigma->0) =     -393.61930590


--------------------------------------------------------------------------------------------------------


  average scaling for gradient   0.8789


 average (electrostatic) potential at core
  the test charge radii are     0.5770  0.5955
  (the norm of the test charge is              1.0000)
       1 -86.7832       2 -86.7824       3 -86.7835       4 -86.7845       5 -86.7815
       6 -86.7812       7 -86.7834       8 -86.7817       9 -86.7821      10 -86.7828
[...]
      16 -86.7815      17 -86.7820      18 -86.7826      19 -86.7830      20 -86.7821
      21 -86.7811      22 -86.7809      23 -86.7851      24 -86.7850      25 -86.7810
      26 -86.7813      27 -86.7822      28 -86.7835      29 -86.7811      30 -86.7810
      31 -86.7840      32 -86.7831      33 -86.7816      34 -86.7813      35 -86.7814
      36 -86.7816      37 -86.7824      38 -86.7828      39 -86.7828      40 -86.7827
      41 -86.7827      42 -86.7830      43 -86.7821      44 -86.7831      45 -86.7811
      46 -86.7813      47 -86.7814      48 -86.7812      49 -86.7827      50 -86.7822
      51 -91.0735      52-120.8388      53-120.8380
 
 
 
 E-fermi :  -4.3627     XC(G=0):  -2.3058     alpha+bet : -1.6890

 Fermi energy:        -4.3626511211

 k-point     1 :       0.0000    0.0000    0.0000
  band No.  band energies     occupation 
      1     -27.9085      2.00000
      2     -26.9589      2.00000
      3     -22.3926      2.00000
      4     -21.4662      2.00000
      5     -21.4652      2.00000
      6     -21.4650      2.00000
      7     -21.4644      2.00000
      8     -21.4642      2.00000
      9     -21.4641      2.00000
     10     -19.6501      2.00000
     11     -19.6501      2.00000
     12     -19.6498      2.00000
     13     -19.6492      2.00000
     14     -19.6488      2.00000
     15     -19.6486      2.00000
     16     -18.7698      2.00000
     17     -18.7696      2.00000
     18     -18.7693      2.00000
     19     -18.7689      2.00000
     20     -18.7683      2.00000
     21     -18.7681      2.00000
     22     -16.6741      2.00000
     23     -16.6738      2.00000
     24     -16.6730      2.00000
     25     -16.6728      2.00000
     26     -16.6724      2.00000
     27     -16.6723      2.00000
     28     -15.6294      2.00000
     29     -15.6294      2.00000
     30     -15.6285      2.00000
     31     -15.6283      2.00000
     32     -15.6279      2.00000
     33     -15.6278      2.00000
     34     -14.3169      2.00000
     35     -14.3168      2.00000
     36     -14.3162      2.00000
     37     -14.3160      2.00000
     38     -14.3159      2.00000
     39     -14.3157      2.00000
     40     -12.7897      2.00000
     41     -12.0204      2.00000
     42     -12.0201      2.00000
     43     -12.0197      2.00000
     44     -12.0196      2.00000
     45     -12.0186      2.00000
     46     -12.0183      2.00000
     47     -11.8520      2.00000
     48     -11.8519      2.00000
     49     -11.8513      2.00000
     50     -11.8512      2.00000
     51     -11.8509      2.00000
     52     -11.8508      2.00000
     53     -11.6774      2.00000
     54     -11.5094      2.00000
     55     -11.5093      2.00000
     56     -10.5715      2.00000
     57     -10.5011      2.00000
     58     -10.5009      2.00000
     59     -10.4994      2.00000
     60     -10.4990      2.00000
     61     -10.4989      2.00000
     62     -10.4988      2.00000
     63      -9.4606      2.00000
     64      -9.4604      2.00000
     65      -9.4602      2.00000
     66      -9.4592      2.00000
     67      -9.4586      2.00000
     68      -9.4585      2.00000
     69      -9.3186      2.00000
     70      -9.3181      2.00000
     71      -9.3175      2.00000
     72      -9.3174      2.00000
     73      -9.3170      2.00000
     74      -9.3168      2.00000
     75      -9.2627      2.00000
     76      -9.2625      2.00000
     77      -9.2619      2.00000
     78      -9.2618      2.00000
     79      -9.2616      2.00000
     80      -9.2607      2.00000
     81      -8.0165      2.00000
     82      -8.0163      2.00000
     83      -7.7093      2.00000
     84      -7.7077      2.00000
     85      -7.7075      2.00000
     86      -7.7071      2.00000
     87      -7.7061      2.00000
     88      -7.7060      2.00000
     89      -7.3430      2.00000
     90      -7.3426      2.00000
     91      -7.3425      2.00000
     92      -7.3422      2.00000
     93      -7.3420      2.00000
     94      -7.3418      2.00000
     95      -6.4537      2.00000
     96      -6.4534      2.00000
     97      -6.4530      2.00000
     98      -6.4527      2.00000
     99      -6.4525      2.00000
    100      -6.4523      2.00000
    101      -6.2849      2.00000
    102      -6.2828      2.00000
    103      -4.4876      2.00000
    104      -4.4873      2.00000
    105      -4.4868      2.00000
    106      -4.4868      2.00000
    107      -4.4859      2.00000
    108      -4.4857      2.00000
    109      -1.7016      0.00000
    110      -1.7013      0.00000
    111      -1.7008      0.00000
    112      -1.7005      0.00000
    113      -1.7001      0.00000
    114      -1.6998      0.00000
    115      -0.4527      0.00000
    116      -0.1038      0.00000
    117       0.1451      0.00000
    118       0.1455      0.00000
    119       0.1460      0.00000
    120       0.1462      0.00000
    121       0.1468      0.00000
    122       0.1473      0.00000
    123       0.3988      0.00000
    124       0.6740      0.00000
    125       0.8111      0.00000
    126       0.8804      0.00000
    127       0.8844      0.00000
    128       0.8976      0.00000
    129       0.9137      0.00000
    130       0.9171      0.00000
    131       1.0450      0.00000
    132       1.3348      0.00000
    133       1.5726      0.00000
    134       1.7338      0.00000
    135       1.7699      0.00000
    136       1.8747      0.00000


--------------------------------------------------------------------------------------------------------


 soft charge-density along one line, spin component           1
         0         1         2         3         4         5         6         7         8         9
 total charge-density along one line
 
 pseudopotential strength for first ion, spin component:           1
 12.619  21.238   0.000  -0.000  -0.000   0.000  -0.000  -0.000
 21.238  35.742   0.000  -0.000  -0.000   0.000  -0.000  -0.000
  0.000   0.000  -3.327  -0.000   0.000  -5.962  -0.000   0.000
 -0.000  -0.000  -0.000  -3.362  -0.000  -0.000  -6.024  -0.000
 -0.000  -0.000   0.000  -0.000  -3.327   0.000  -0.000  -5.962
  0.000   0.000  -5.962  -0.000   0.000 -10.663  -0.000   0.000
 -0.000  -0.000  -0.000  -6.024  -0.000  -0.000 -10.773  -0.000
 -0.000  -0.000   0.000  -0.000  -5.962   0.000  -0.000 -10.663
 total augmentation occupancy for first ion, spin component:           1
  6.241  -2.004  -0.000  -0.002  -0.000   0.000   0.001   0.000
 -2.004   0.691   0.000   0.001   0.000  -0.000  -0.000  -0.000
 -0.000   0.000   5.992  -0.007   0.000  -1.878   0.003  -0.000
 -0.002   0.001  -0.007   2.311  -0.000   0.003  -0.483   0.000
 -0.000   0.000   0.000  -0.000   5.992  -0.000   0.000  -1.878
  0.000  -0.000  -1.878   0.003  -0.000   0.606  -0.001   0.000
  0.001  -0.000   0.003  -0.483   0.000  -0.001   0.111  -0.000
  0.000  -0.000  -0.000   0.000  -1.878   0.000  -0.000   0.606


------------------------ aborting loop because EDIFF is reached ----------------------------------------


    FORLOC:  cpu time    0.0707: real time    0.0713
    FORNL :  cpu time    0.8449: real time    0.8493
    FORCOR:  cpu time    4.3620: real time    4.3924
    OFIELD:  cpu time    0.0015: real time    0.0015

 VOLUME and BASIS-vectors are now :
 -----------------------------------------------------------------------------
  energy-cutoff  :     1000.00
  volume of cell :     3288.85
      direct lattice vectors                 reciprocal lattice vectors
    12.325000000  0.000000000  0.000000000     0.081135903  0.046843835  0.000000000
    -6.162500000 10.673763102  0.000000000     0.000000000  0.093687670  0.000000000
     0.000000000  0.000000000 25.000000000     0.000000000  0.000000000  0.040000000

  length of vectors
    12.325000000 12.325000000 25.000000000     0.093687670  0.093687670  0.040000000


 FORCES acting on ions:
    Electron-Ion                     Ewald-Force                    Non-Local-Force
 -----------------------------------------------------------------------------------------------
   0.174E+01 0.151E+01 0.193E+02   -.174E+01 -.151E+01 -.193E+02   0.563E-02 -.862E-03 0.676E-02
   0.244E+01 0.122E+01 0.211E+02   -.244E+01 -.122E+01 -.211E+02   0.473E-02 -.335E-02 -.574E-02
   0.999E+00 0.272E+01 0.218E+02   -.100E+01 -.272E+01 -.218E+02   -.562E-03 0.130E-01 0.631E-03
   0.127E+01 0.184E+01 0.254E+02   -.127E+01 -.184E+01 -.254E+02   0.130E-01 0.120E-02 -.127E-01
   0.187E+01 0.457E+00 0.197E+02   -.187E+01 -.457E+00 -.197E+02   0.608E-03 -.601E-02 0.304E-02
   0.191E+01 -.403E+00 0.199E+02   -.191E+01 0.404E+00 -.199E+02   -.604E-02 0.274E-02 -.383E-02
   0.245E+01 0.928E+00 0.249E+02   -.245E+01 -.927E+00 -.249E+02   0.138E-01 -.198E-01 -.510E-02
   0.241E+01 -.841E+00 0.261E+02   -.242E+01 0.846E+00 -.261E+02   -.456E-02 -.668E-02 -.548E-02
   -.121E+01 0.250E+01 0.221E+02   0.122E+01 -.251E+01 -.221E+02   -.166E-02 -.109E-01 -.525E-02
   -.171E+01 0.145E+01 0.254E+02   0.171E+01 -.145E+01 -.254E+02   -.273E-01 0.160E-01 0.378E-02
   0.493E+00 -.508E+00 0.184E+02   -.490E+00 0.508E+00 -.184E+02   0.311E-02 -.251E-02 -.729E-03
   0.451E+00 -.380E+00 0.180E+02   -.450E+00 0.379E+00 -.180E+02   -.746E-02 0.358E-02 0.561E-02
   0.883E+00 -.198E+01 0.273E+02   -.886E+00 0.198E+01 -.273E+02   0.282E-01 -.915E-02 -.916E-03
   0.532E+00 -.278E+01 0.233E+02   -.538E+00 0.278E+01 -.232E+02   0.512E-02 0.502E-02 -.167E-01
   -.171E+01 0.104E+01 0.192E+02   0.172E+01 -.104E+01 -.192E+02   0.689E-02 -.349E-02 0.677E-02
   -.225E+01 0.663E+00 0.199E+02   0.225E+01 -.664E+00 -.199E+02   -.268E-02 0.579E-02 -.603E-02
   -.316E+00 -.125E+00 0.175E+02   0.320E+00 0.123E+00 -.175E+02   -.128E-02 0.729E-03 0.171E-02
   0.140E+00 0.108E+01 0.178E+02   -.138E+00 -.108E+01 -.178E+02   -.363E-02 0.208E-02 0.949E-02
   -.441E+00 -.267E+01 0.211E+02   0.440E+00 0.267E+01 -.211E+02   0.705E-02 -.262E-02 0.903E-03
   -.251E+00 -.160E+01 0.187E+02   0.247E+00 0.160E+01 -.187E+02   0.878E-03 -.177E-02 -.945E-03
   0.246E+01 -.108E+01 0.221E+02   -.246E+01 0.108E+01 -.221E+02   -.539E-03 -.301E-02 -.183E-01
   0.171E+01 -.139E+01 0.205E+02   -.171E+01 0.139E+01 -.205E+02   -.627E-02 0.501E-02 -.317E-02
   -.447E+00 0.814E+00 0.280E+02   0.444E+00 -.813E+00 -.280E+02   -.111E-01 0.111E-01 0.437E-02
   -.603E+00 -.128E+01 0.278E+02   0.605E+00 0.128E+01 -.278E+02   0.127E-01 -.158E-01 -.794E-02
   0.931E+00 -.351E+00 0.185E+02   -.928E+00 0.349E+00 -.185E+02   0.294E-02 -.234E-02 -.426E-02
   0.239E+00 0.805E+00 0.184E+02   -.238E+00 -.805E+00 -.184E+02   -.577E-02 0.385E-02 0.513E-02
   -.276E+01 0.355E+00 0.228E+02   0.276E+01 -.359E+00 -.228E+02   0.949E-02 0.856E-02 -.214E-02
   -.263E+01 -.105E+01 0.220E+02   0.263E+01 0.105E+01 -.221E+02   -.103E-01 0.958E-02 0.190E-02
   0.981E+00 -.198E+01 0.208E+02   -.982E+00 0.198E+01 -.208E+02   0.538E-02 0.164E-02 -.777E-02
   0.847E-01 -.868E+00 0.190E+02   -.873E-01 0.870E+00 -.190E+02   -.419E-02 0.230E-02 -.314E-02
   -.189E+01 -.194E+01 0.238E+02   0.189E+01 0.194E+01 -.238E+02   -.129E-01 -.826E-02 -.112E-01
   -.135E+01 -.253E+01 0.212E+02   0.135E+01 0.253E+01 -.212E+02   0.849E-03 -.258E-02 0.339E-02
   0.118E+00 0.509E+00 0.179E+02   -.119E+00 -.508E+00 -.179E+02   0.563E-02 -.480E-02 0.689E-02
   0.314E+00 0.480E+00 0.183E+02   -.317E+00 -.479E+00 -.183E+02   -.195E-02 0.421E-02 -.187E-02
   -.118E+01 0.208E+00 0.187E+02   0.118E+01 -.209E+00 -.187E+02   0.370E-02 -.211E-02 0.552E-02
   -.105E+01 -.465E+00 0.186E+02   0.105E+01 0.464E+00 -.186E+02   -.484E-02 0.263E-02 0.343E-02
   -.200E+01 -.106E+01 0.193E+02   0.201E+01 0.106E+01 -.193E+02   -.237E-02 0.116E-02 0.350E-02
   -.131E+01 -.105E+01 0.183E+02   0.132E+01 0.105E+01 -.184E+02   -.475E-02 0.137E-02 0.943E-02
   -.119E+01 -.152E+01 0.188E+02   0.119E+01 0.152E+01 -.188E+02   -.363E-02 -.998E-04 0.531E-02
   -.181E+00 -.409E+00 0.179E+02   0.181E+00 0.409E+00 -.179E+02   0.217E-02 0.205E-03 0.775E-02
   0.449E+00 0.113E+01 0.180E+02   -.450E+00 -.113E+01 -.180E+02   -.413E-02 0.228E-02 0.729E-02
   0.136E+01 0.210E+01 0.195E+02   -.136E+01 -.211E+01 -.195E+02   0.316E-03 -.293E-03 0.863E-02
   0.138E+00 0.187E+01 0.185E+02   -.133E+00 -.187E+01 -.185E+02   -.115E-02 0.169E-02 0.198E-02
   -.289E-01 0.278E+01 0.208E+02   0.311E-01 -.279E+01 -.208E+02   -.915E-02 0.302E-02 0.595E-02
   -.356E+00 0.670E+00 0.187E+02   0.358E+00 -.672E+00 -.187E+02   0.359E-02 -.267E-02 0.653E-03
   -.133E+01 0.164E+01 0.198E+02   0.133E+01 -.165E+01 -.198E+02   -.681E-02 0.893E-03 -.233E-02
   -.339E+00 -.815E+00 0.185E+02   0.338E+00 0.815E+00 -.185E+02   0.681E-02 -.155E-02 0.563E-02
   -.733E+00 0.265E+00 0.179E+02   0.731E+00 -.264E+00 -.179E+02   -.305E-02 0.309E-02 -.401E-02
   0.776E-01 -.505E+00 0.179E+02   -.787E-01 0.506E+00 -.179E+02   0.476E-02 -.334E-02 0.592E-02
   0.802E+00 0.571E+00 0.179E+02   -.805E+00 -.569E+00 -.179E+02   0.778E-03 0.139E-02 0.322E-02
   0.496E-02 0.189E-01 -.256E+03   -.906E-02 -.153E-01 0.256E+03   -.279E-02 0.188E-02 0.164E-02
   -.229E+03 0.156E+03 -.397E+03   0.279E+03 -.190E+03 0.400E+03   -.513E+02 0.349E+02 -.344E+01
   0.229E+03 -.156E+03 -.375E+03   -.279E+03 0.190E+03 0.372E+03   0.513E+02 -.349E+02 0.310E+01
 -----------------------------------------------------------------------------------------------
   -.764E-02 0.139E-01 0.339E+00   0.114E-12 -.114E-12 0.455E-12   0.717E-02 -.139E-01 -.341E+00
 
 
 POSITION                                       TOTAL-FORCE (eV/Angst)
 -----------------------------------------------------------------------------------
     11.98348      0.00342      0.01417         0.003028     -0.001750     -0.000776
     -0.34154      1.42665      0.01100        -0.001187      0.000235     -0.003469
      2.12355      0.00315      0.01249        -0.002017      0.010434     -0.006171
      2.12326      1.42653      0.00641         0.013509      0.001117     -0.008358
     10.75099      2.13819      0.01213         0.000517     -0.005500      0.000112
     -1.57382      3.56123      0.01110        -0.008835      0.004607     -0.001457
      0.89078      2.13854      0.00548         0.009312     -0.018945      0.002037
      0.89099      3.56147      0.00181        -0.012008     -0.002231      0.011119
      4.58864      0.00346      0.01135         0.003908     -0.015772     -0.003532
      4.58894      1.42623      0.00646        -0.022853      0.012886      0.013297
      9.51854      4.27281      0.01369         0.006586     -0.002981      0.000282
     -2.80632      5.69591      0.01434        -0.006403      0.003315      0.000966
      2.12300      4.27302      0.00000         0.024574     -0.004742      0.019443
      2.12335      5.69594      0.00581        -0.000968      0.009245     -0.003091
      7.05344      0.00333      0.01399         0.009120     -0.005182     -0.000050
      7.05353      1.42635      0.01368        -0.001448      0.004609     -0.003751
      8.28610      6.40752      0.01601         0.003067     -0.001530     -0.000605
     -4.03885      7.83070      0.01636        -0.002175      0.000889      0.000207
      3.35586      6.40753      0.01007         0.005415      0.000744     -0.001249
      3.35599      7.83072      0.01320        -0.003317      0.000160     -0.000602
     -0.34146      4.27290      0.00723        -0.002040     -0.001161     -0.004879
     -0.34138      5.69591      0.00946        -0.008961      0.006421     -0.001091
      3.35624      2.13791      0.00222        -0.013883      0.011892      0.015449
      3.35573      3.56155      0.00139         0.013767     -0.015889      0.007861
     -1.57395      6.40758      0.01311         0.005377     -0.003952     -0.000596
     -1.57385      7.83068      0.01438        -0.004666      0.003704      0.000291
      5.82093      2.13784      0.01033         0.016105      0.004854     -0.002864
      5.82114      3.56097      0.01156        -0.006125      0.008602     -0.003524
      0.89092      6.40755      0.00907         0.004361      0.002236     -0.002345
      0.89106      7.83068      0.01235        -0.006732      0.003885      0.000359
      4.58871      4.27293      0.00850        -0.012847     -0.005972     -0.010767
      4.58852      5.69606      0.01149         0.002174     -0.001231     -0.003746
      9.51845      0.00337      0.01490         0.004614     -0.004529      0.000402
      9.51855      1.42644      0.01438        -0.005189      0.005316     -0.000242
      8.28593      2.13803      0.01453         0.006714     -0.003328      0.000809
      8.28613      3.56115      0.01464        -0.004260      0.002081      0.000200
      7.05356      4.27269      0.01457         0.002991     -0.001124     -0.000442
      7.05362      5.69588      0.01553        -0.002350      0.001555      0.000205
      5.82112      6.40755      0.01489        -0.002980      0.001755      0.000106
      5.82102      7.83073      0.01579         0.002789      0.000192     -0.000003
      7.05363      8.54227      0.01631        -0.004644      0.001193      0.001286
     -5.27149      9.96549      0.01495         0.000316     -0.002134     -0.001803
     -2.80638      8.54234      0.01558         0.003283     -0.001633     -0.001010
     -2.80627      9.96553      0.01362        -0.006724     -0.000256     -0.003465
     -0.34149      8.54239      0.01378         0.005703     -0.004910      0.000363
     -0.34138      9.96550      0.01354        -0.005473     -0.000143     -0.001172
      2.12343      8.54232      0.01336         0.005702     -0.001512      0.000958
      2.12354      9.96544      0.01469        -0.005146      0.003805     -0.001804
      4.58846      8.54235      0.01505         0.003626     -0.002732      0.001154
      4.58853      9.96550      0.01517        -0.002882      0.003312      0.000326
      3.04930      2.68154      6.67420        -0.006797      0.005443      0.031106
      4.02070      2.02068      6.73862        -0.487197      0.331047     -0.048854
      2.07767      3.34267      6.61474         0.493551     -0.336392      0.013381
 -----------------------------------------------------------------------------------
    total drift:                               -0.000466      0.000044     -0.001995


--------------------------------------------------------------------------------------------------------



  FREE ENERGIE OF THE ION-ELECTRON SYSTEM (eV)
  ---------------------------------------------------
  free  energy   TOTEN  =      -393.61930590 eV

  energy  without entropy=     -393.61930590  energy(sigma->0) =     -393.61930590
 


--------------------------------------------------------------------------------------------------------


    POTLOK:  cpu time    4.3218: real time    4.3594


--------------------------------------------------------------------------------------------------------


     LOOP+:  cpu time  288.5440: real time  291.1476
    4ORBIT:  cpu time    0.0000: real time    0.0000

 total amount of memory used by VASP MPI-rank0   100580. kBytes
=======================================================================

   base      :      30000. kBytes
   nonl-proj :       8229. kBytes
   fftplans  :      18352. kBytes
   grid      :      30208. kBytes
   one-center:          6. kBytes
   wavefun   :      13785. kBytes
 
  
  
 General timing and accounting informations for this job:
 ========================================================
  
                  Total CPU time used (sec):      331.832
                            User time (sec):      306.976
                          System time (sec):       24.856
                         Elapsed time (sec):      335.771
  
                   Maximum memory used (kb):      814820.
                   Average memory used (kb):          N/A
  
                          Minor page faults:       412884
                          Major page faults:          106
                 Voluntary context switches:         3549
