 vasp.6.2.1 16May21 (build Nov 06 2021 14:46:37) complex                        
  
 executed on             LinuxIFC date 2025.04.16  18:28:40
 running on  112 total cores
 distrk:  each k-point on  112 cores,    1 groups
 distr:  one band on NCORE=  28 cores,    4 groups


--------------------------------------------------------------------------------------------------------


 INCAR:
   NPAR = 4
   ALGO = Conjugate
   ISMEAR = 0
   SIGMA = 0.01
   PREC = Accurate
   EDIFF = 1E-7
   ENCUT = 1000
   ISIF = 0
   GGA = ML
   LUSE_VDW = .TRUE.
   ZAB_VDW = -1.8867
   AGGAC = 0.0000
   LASPH = .TRUE.
   SYMPREC = 1E-7
   LWAVE = .FALSE.
   LCHARGE = .FALSE.

 POTCAR:    PAW_PBE C_h 06Feb2004                 
 POTCAR:    PAW_PBE O_h 06Feb2004                 
 -----------------------------------------------------------------------------
|                                                                             |
|           W    W    AA    RRRRR   N    N  II  N    N   GGGG   !!!           |
|           W    W   A  A   R    R  NN   N  II  NN   N  G    G  !!!           |
|           W    W  A    A  R    R  N N  N  II  N N  N  G       !!!           |
|           W WW W  AAAAAA  RRRRR   N  N N  II  N  N N  G  GGG   !            |
|           WW  WW  A    A  R   R   N   NN  II  N   NN  G    G                |
|           W    W  A    A  R    R  N    N  II  N    N   GGGG   !!!           |
|                                                                             |
|     For optimal performance we recommend to set                             |
|       NCORE = 2 up to number-of-cores-per-socket                            |
|     NCORE specifies how many cores store one orbital (NPAR=cpu/NCORE).      |
|     This setting can greatly improve the performance of VASP for DFT.       |
|     The default, NCORE=1 might be grossly inefficient on modern             |
|     multi-core architectures or massively parallel machines. Do your        |
|     own testing! More info at https://www.vasp.at/wiki/index.php/NCORE      |
|     Unfortunately you need to use the default for GW and RPA                |
|     calculations (for HF NCORE is supported but not extensively tested      |
|     yet).                                                                   |
|                                                                             |
 -----------------------------------------------------------------------------

 -----------------------------------------------------------------------------
|                                                                             |
|               ----> ADVICE to this user running VASP <----                  |
|                                                                             |
|     You have switched on vdW-DFT.                                           |
|     This routine was written and supplied by Jiri Klimes. We recommend      |
|     that you carefully read and cite the following publications:            |
|       J. Klimes, D.R. Bowler, A. Michelides                                 |
|          J. Phys.: Cond Matt. 22 022201 (2010)                              |
|       J. Klimes, D.R. Bowler, A. Michelides                                 |
|          Phys. Rev. B. 83, 195131 (2011)                                    |
|     and references therein.                                                 |
|                                                                             |
 -----------------------------------------------------------------------------

 POTCAR:    PAW_PBE C_h 06Feb2004                 
   VRHFIN =C: s2p2                                                                                  
   LEXCH  = PE                                                                                      
   EATOM  =   147.1560 eV,   10.8157 Ry                                                             
                                                                                                    
   TITEL  = PAW_PBE C_h 06Feb2004                                                                   
   LULTRA =        F    use ultrasoft PP ?                                                          
   IUNSCR =        1    unscreen: 0-lin 1-nonlin 2-no                                               
   RPACOR =    0.800    partial core radius                                                         
   POMASS =   12.011; ZVAL   =    4.000    mass and valenz                                          
   RCORE  =    1.100    outmost cutoff radius                                                       
   RWIGS  =    1.630; RWIGS  =    0.863    wigner-seitz radius (au A)                               
   ENMAX  =  700.000; ENMIN  =  500.000 eV                                                          
   ICORE  =        2    local potential                                                             
   LCOR   =        T    correct aug charges                                                         
   LPAW   =        T    paw PP                                                                      
   EAUG   =  946.768                                                                                
   DEXC   =    0.000                                                                                
   RMAX   =    1.128    core radius for proj-oper                                                   
   RAUG   =    1.300    factor for augmentation sphere                                              
   RDEP   =    1.162    radius for radial grids                                                     
   RDEPT  =    1.088    core radius for aug-charge                                                  
                                                                                                    
   Atomic configuration                                                                             
    4 entries                                                                                       
     n  l   j            E        occ.                                                              
     1  0  0.50      -273.3789   2.0000                                                             
     2  0  0.50       -13.7508   2.0000                                                             
     2  1  0.50        -5.2854   2.0000                                                             
     3  2  1.50        -5.4423   0.0000                                                             
   Description                                                                                      
     l       E           TYP  RCUT    TYP  RCUT                                                     
     0    -13.7508458     23  1.100                                                                 
     0     -8.2022199     23  1.100                                                                 
     1     -5.2854383     23  1.100                                                                 
     1      1.1560700     23  1.100                                                                 
     2     -5.4423304      7  1.100                                                                 
  local pseudopotential read in
  partial core-charges read in
  partial kinetic energy density read in
  atomic valenz-charges read in
  non local Contribution for L=           0  read in
    real space projection operators read in
  non local Contribution for L=           0  read in
    real space projection operators read in
  non local Contribution for L=           1  read in
    real space projection operators read in
  non local Contribution for L=           1  read in
    real space projection operators read in
    PAW grid and wavefunctions read in
 
   number of l-projection  operators is LMAX  =           4
   number of lm-projection operators is LMMAX =           8
 
 POTCAR:    PAW_PBE O_h 06Feb2004                 
   VRHFIN =O: s2p4                                                                                  
   LEXCH  = PE                                                                                      
   EATOM  =   432.3788 eV,   31.7789 Ry                                                             
                                                                                                    
   TITEL  = PAW_PBE O_h 06Feb2004                                                                   
   LULTRA =        F    use ultrasoft PP ?                                                          
   IUNSCR =        1    unscreen: 0-lin 1-nonlin 2-no                                               
   RPACOR =    0.800    partial core radius                                                         
   POMASS =   16.000; ZVAL   =    6.000    mass and valenz                                          
   RCORE  =    1.100    outmost cutoff radius                                                       
   RWIGS  =    1.400; RWIGS  =    0.741    wigner-seitz radius (au A)                               
   ENMAX  =  700.000; ENMIN  =  500.000 eV                                                          
   ICORE  =        2    local potential                                                             
   LCOR   =        T    correct aug charges                                                         
   LPAW   =        T    paw PP                                                                      
   EAUG   =  888.804                                                                                
   DEXC   =    0.000                                                                                
   RMAX   =    1.128    core radius for proj-oper                                                   
   RAUG   =    1.300    factor for augmentation sphere                                              
   RDEP   =    1.125    radius for radial grids                                                     
   RDEPT  =    1.088    core radius for aug-charge                                                  
                                                                                                    
   Atomic configuration                                                                             
    4 entries                                                                                       
     n  l   j            E        occ.                                                              
     1  0  0.50      -514.6923   2.0000                                                             
     2  0  0.50       -23.9615   2.0000                                                             
     2  1  0.50        -9.0305   4.0000                                                             
     3  2  1.50        -9.5241   0.0000                                                             
   Description                                                                                      
     l       E           TYP  RCUT    TYP  RCUT                                                     
     0    -23.9615319     23  1.100                                                                 
     0    -25.3221145     23  1.100                                                                 
     1     -9.0304911     23  1.100                                                                 
     1     -5.4802209     23  1.100                                                                 
     2     -9.5240782      7  1.100                                                                 
  local pseudopotential read in
  partial core-charges read in
  partial kinetic energy density read in
  atomic valenz-charges read in
  non local Contribution for L=           0  read in
    real space projection operators read in
  non local Contribution for L=           0  read in
    real space projection operators read in
  non local Contribution for L=           1  read in
    real space projection operators read in
  non local Contribution for L=           1  read in
    real space projection operators read in
    PAW grid and wavefunctions read in
 
   number of l-projection  operators is LMAX  =           4
   number of lm-projection operators is LMMAX =           8
 
 -----------------------------------------------------------------------------
|                                                                             |
|               ----> ADVICE to this user running VASP <----                  |
|                                                                             |
|     You have a (more or less) 'large supercell' and for larger cells it     |
|     might be more efficient to use real-space projection operators.         |
|     Therefore, try LREAL= Auto in the INCAR file.                           |
|     Mind: For very accurate calculation, you might also keep the            |
|     reciprocal projection scheme (i.e. LREAL=.FALSE.).                      |
|                                                                             |
 -----------------------------------------------------------------------------

 -----------------------------------------------------------------------------
|                                                                             |
|               ----> ADVICE to this user running VASP <----                  |
|                                                                             |
|     You enforced a specific xc type in the INCAR file but a different       |
|     type was found in the POTCAR file.                                      |
|     I HOPE YOU KNOW WHAT YOU ARE DOING!                                     |
|                                                                             |
 -----------------------------------------------------------------------------

  PAW_PBE C_h 06Feb2004                 :
 energy of atom  1       EATOM= -147.1560
 kinetic energy error for atom=    0.0031 (will be added to EATOM!!)
  PAW_PBE O_h 06Feb2004                 :
 energy of atom  2       EATOM= -432.3788
 kinetic energy error for atom=    0.0171 (will be added to EATOM!!)
 
 
 POSCAR:  C  O
  positions in cartesian coordinates
  No initial velocities read in
 exchange correlation table for  LEXCH =       44
   RHO(1)=    0.500       N(1)  =     2000
   RHO(2)=  100.500       N(2)  =     4000
 


--------------------------------------------------------------------------------------------------------


 ion  position               nearest neighbor table
   1  0.972  0.000  0.001-  50 1.42   2 1.42  42 1.42
   2  0.039  0.134  0.000-   5 1.42   7 1.42   1 1.42
   3  0.172  0.000  0.000-  42 1.42  44 1.42   4 1.42
   4  0.239  0.134  0.000-   7 1.42   3 1.42  23 1.42
   5  0.972  0.200  0.000-   6 1.42   2 1.42  34 1.42
   6  0.039  0.334  0.000-   5 1.42  21 1.42  11 1.42
   7  0.172  0.200  0.000-   8 1.42   2 1.42   4 1.42
   8  0.239  0.334  0.000-  13 1.42   7 1.42  21 1.42
   9  0.372  0.000  0.000-  10 1.42  44 1.42  46 1.42
  10  0.439  0.134  0.000-  27 1.42   9 1.42  23 1.42
  11  0.972  0.400  0.001-  12 1.42  36 1.42   6 1.42
  12  0.039  0.534  0.001-  25 1.42  11 1.42  17 1.42
  13  0.372  0.400  0.000-   8 1.42  14 1.42  24 1.42
  14  0.439  0.534  0.000-  13 1.42  29 1.42  19 1.42
  15  0.572  0.000  0.001-  46 1.42  16 1.42  48 1.42
  16  0.639  0.134  0.001-  15 1.42  35 1.42  27 1.42
  17  0.972  0.600  0.001-  38 1.42  18 1.42  12 1.42
  18  0.039  0.734  0.001-  43 1.42  41 1.42  17 1.42
  19  0.572  0.600  0.000-  14 1.42  20 1.42  32 1.42
  20  0.639  0.734  0.001-  49 1.42  19 1.42  47 1.42
  21  0.172  0.400  0.000-  22 1.42   8 1.42   6 1.42
  22  0.239  0.534  0.000-  21 1.42  29 1.42  25 1.42
  23  0.372  0.200  0.000-  10 1.42   4 1.42  24 1.42
  24  0.439  0.334  0.000-  13 1.42  31 1.42  23 1.42
  25  0.172  0.600  0.001-  26 1.42  12 1.42  22 1.42
  26  0.239  0.734  0.001-  25 1.42  45 1.42  43 1.42
  27  0.572  0.200  0.000-  10 1.42  28 1.42  16 1.42
  28  0.639  0.334  0.000-  27 1.42  37 1.42  31 1.42
  29  0.372  0.600  0.000-  22 1.42  14 1.42  30 1.42
  30  0.439  0.734  0.000-  47 1.42  29 1.42  45 1.42
  31  0.572  0.400  0.000-  32 1.42  28 1.42  24 1.42
  32  0.639  0.534  0.000-  31 1.42  39 1.42  19 1.42
  33  0.772  0.000  0.001-  34 1.42  48 1.42  50 1.42
  34  0.839  0.134  0.001-  33 1.42   5 1.42  35 1.42
  35  0.772  0.200  0.001-  36 1.42  16 1.42  34 1.42
  36  0.839  0.334  0.001-  35 1.42  11 1.42  37 1.42
  37  0.772  0.400  0.001-  28 1.42  38 1.42  36 1.42
  38  0.839  0.534  0.001-  17 1.42  37 1.42  39 1.42
  39  0.772  0.600  0.001-  40 1.42  38 1.42  32 1.42
  40  0.839  0.734  0.001-  39 1.42  49 1.42  41 1.42
  41  0.972  0.800  0.001-  18 1.42  42 1.42  40 1.42
  42  0.039  0.934  0.001-   3 1.42  41 1.42   1 1.42
  43  0.172  0.800  0.001-  18 1.42  44 1.42  26 1.42
  44  0.239  0.934  0.001-   9 1.42  43 1.42   3 1.42
  45  0.372  0.800  0.001-  26 1.42  46 1.42  30 1.42
  46  0.439  0.934  0.001-  15 1.42  45 1.42   9 1.42
  47  0.572  0.800  0.001-  30 1.42  48 1.42  20 1.42
  48  0.639  0.934  0.001-  47 1.42  33 1.42  15 1.42
  49  0.772  0.800  0.001-  50 1.42  20 1.42  40 1.42
  50  0.839  0.934  0.001-  49 1.42   1 1.42  33 1.42
  51  0.373  0.251  0.112-  52 1.18  53 1.18
  52  0.421  0.189  0.115-  51 1.18
  53  0.325  0.313  0.110-  51 1.18
 
  LATTYP: Found a hexagonal cell.
 ALAT       =    12.3250000000
 C/A-ratio  =     2.0283975659
  
  Lattice vectors:
  
 A1 = (  12.3250000000,   0.0000000000,   0.0000000000)
 A2 = (  -6.1625000000,  10.6737631016,   0.0000000000)
 A3 = (   0.0000000000,   0.0000000000,  25.0000000000)


Analysis of symmetry for initial positions (statically):
=====================================================================
 Subroutine PRICEL returns:
 Original cell was already a primitive cell.
 

 Routine SETGRP: Setting up the symmetry group for a 
 hexagonal supercell.


 Subroutine GETGRP returns: Found  1 space group operations
 (whereof  1 operations were pure point group operations)
 out of a pool of 24 trial point group operations.


The static configuration has the point symmetry C_1 .


Analysis of symmetry for dynamics (positions and initial velocities):
=====================================================================
 Subroutine PRICEL returns:
 Original cell was already a primitive cell.
 

 Routine SETGRP: Setting up the symmetry group for a 
 hexagonal supercell.


 Subroutine GETGRP returns: Found  1 space group operations
 (whereof  1 operations were pure point group operations)
 out of a pool of 24 trial point group operations.


The dynamic configuration has the point symmetry C_1 .


 Subroutine INISYM returns: Found  1 space group operations
 (whereof  1 operations are pure point group operations),
 and found     1 'primitive' translations


----------------------------------------------------------------------------------------

                                     Primitive cell                                     

  volume of cell :    3288.8533

  direct lattice vectors                    reciprocal lattice vectors
    12.325000000  0.000000000  0.000000000     0.081135903  0.046843835  0.000000000
    -6.162500000 10.673763102  0.000000000     0.000000000  0.093687670  0.000000000
     0.000000000  0.000000000 25.000000000     0.000000000  0.000000000  0.040000000

  length of vectors
    12.325000000 12.325000000 25.000000000     0.093687670  0.093687670  0.040000000

  position of ions in fractional coordinates (direct lattice)
     0.972450841  0.000320818  0.000566711
     0.039118382  0.133659505  0.000440173
     0.172443627  0.000295449  0.000499628
     0.239096278  0.133647917  0.000256468
     0.972452058  0.200322012  0.000485219
     0.039128360  0.333643771  0.000444150
     0.172451764  0.200354552  0.000219167
     0.239124359  0.333665720  0.000072260
     0.372465565  0.000324403  0.000453913
     0.439137473  0.133619939  0.000258338
     0.972449824  0.400309362  0.000547611
     0.039124981  0.533636789  0.000573410
     0.372416176  0.400329481  0.000000000
     0.439099602  0.533638981  0.000232414
     0.572443676  0.000312125  0.000559580
     0.639110207  0.133631751  0.000547275
     0.972452703  0.600305653  0.000640289
     0.039124495  0.733640359  0.000654513
     0.572433471  0.600306242  0.000402895
     0.639111888  0.733641879  0.000527905
     0.172454630  0.400318228  0.000289045
     0.239120185  0.533636548  0.000378509
     0.372459750  0.200295993  0.000088997
     0.439107096  0.333673419  0.000055762
     0.172452155  0.600311506  0.000524340
     0.239123371  0.733638574  0.000575129
     0.572431082  0.200289171  0.000413296
     0.639112773  0.333618630  0.000462376
     0.372439808  0.600308022  0.000362844
     0.439116090  0.733637858  0.000494190
     0.572469358  0.400320504  0.000339918
     0.639119408  0.533650873  0.000459610
     0.772445723  0.000315427  0.000596161
     0.839116277  0.133640203  0.000575306
     0.772440513  0.200307432  0.000581033
     0.839120241  0.333635728  0.000585467
     0.772446320  0.400298367  0.000582978
     0.839118980  0.533633964  0.000621100
     0.772456143  0.600308173  0.000595712
     0.839115033  0.733643180  0.000631512
     0.972455313  0.800305582  0.000652233
     0.039114714  0.933643289  0.000598051
     0.172457971  0.800312211  0.000623372
     0.239134551  0.933647193  0.000544850
     0.372451396  0.800316674  0.000551399
     0.439124489  0.933644769  0.000541430
     0.572441101  0.800310054  0.000534535
     0.639115067  0.933638985  0.000587644
     0.772445098  0.800313187  0.000602062
     0.839116614  0.933644338  0.000606830
     0.373021009  0.251226878  0.112246205
     0.420879805  0.189313152  0.114823079
     0.325156981  0.313167186  0.109868010

  ion indices of the primitive-cell ions
   primitive index   ion index
                 1           1
                 2           2
                 3           3
                 4           4
                 5           5
                 6           6
                 7           7
                 8           8
                 9           9
                10          10
                11          11
                12          12
                13          13
                14          14
                15          15
                16          16
                17          17
                18          18
                19          19
                20          20
                21          21
                22          22
                23          23
                24          24
                25          25
                26          26
                27          27
                28          28
                29          29
                30          30
                31          31
                32          32
                33          33
                34          34
                35          35
                36          36
                37          37
                38          38
                39          39
                40          40
                41          41
                42          42
                43          43
                44          44
                45          45
                46          46
                47          47
                48          48
                49          49
                50          50
                51          51
                52          52
                53          53

----------------------------------------------------------------------------------------

 
 
 KPOINTS: auto                                    

Automatic generation of k-mesh.
 Grid dimensions read from file:
 generate k-points for:    1    1    1

 Generating k-lattice:

  Cartesian coordinates                     Fractional coordinates (reciprocal lattice)
     0.081135903  0.046843835  0.000000000     1.000000000 -0.000000000  0.000000000
     0.000000000  0.093687670  0.000000000     0.000000000  1.000000000  0.000000000
     0.000000000  0.000000000  0.040000000     0.000000000  0.000000000  1.000000000

  Length of vectors
     0.093687670  0.093687670  0.040000000

  Shift w.r.t. Gamma in fractional coordinates (k-lattice)
     0.000000000  0.000000000  0.000000000

 
 Subroutine IBZKPT returns following result:
 ===========================================
 
 Found      1 irreducible k-points:
 
 Following reciprocal coordinates:
            Coordinates               Weight
  0.000000  0.000000  0.000000      1.000000
 
 Following cartesian coordinates:
            Coordinates               Weight
  0.000000  0.000000  0.000000      1.000000
 


--------------------------------------------------------------------------------------------------------




 Dimension of arrays:
   k-points           NKPTS =      1   k-points in BZ     NKDIM =      1   number of bands    NBANDS=    136
   number of dos      NEDOS =    301   number of ions     NIONS =     53
   non local maximal  LDIM  =      4   non local SUM 2l+1 LMDIM =      8
   total plane-waves  NPLWV = ******
   max r-space proj   IRMAX =      1   max aug-charges    IRDMAX=  10008
   dimension x,y,z NGX =   128 NGY =  128 NGZ =  270
   dimension x,y,z NGXF=   256 NGYF=  256 NGZF=  540
   support grid    NGXF=   256 NGYF=  256 NGZF=  540
   ions per type =              51   2
   NGX,Y,Z   is equivalent  to a cutoff of  17.27, 17.27, 17.95 a.u.
   NGXF,Y,Z  is equivalent  to a cutoff of  34.53, 34.53, 35.91 a.u.

 SYSTEM =  unknown system                          
 POSCAR =   C  O                                   

 Startparameter for this run:
   NWRITE =      2    write-flag & timer
   PREC   = accura    normal or accurate (medium, high low for compatibility)
   ISTART =      0    job   : 0-new  1-cont  2-samecut
   ICHARG =      2    charge: 1-file 2-atom 10-const
   ISPIN  =      1    spin polarized calculation?
   LNONCOLLINEAR =      F non collinear calculations
   LSORBIT =      F    spin-orbit coupling
   INIWAV =      1    electr: 0-lowe 1-rand  2-diag
   LASPH  =      T    aspherical Exc in radial PAW
 Electronic Relaxation 1
   ENCUT  = 1000.0 eV  73.50 Ry    8.57 a.u.  31.78 31.78 64.46*2*pi/ulx,y,z
   ENINI  = 1000.0     initial cutoff
   ENAUG  =  946.8 eV  augmentation charge cutoff
   NELM   =     60;   NELMIN=  2; NELMDL= -5     # of ELM steps 
   EDIFF  = 0.1E-06   stopping-criterion for ELM
   LREAL  =      F    real-space projection
   NLSPLINE    = F    spline interpolate recip. space projectors
   LCOMPAT=      F    compatible to vasp.4.4
   GGA_COMPAT  = T    GGA compatible to vasp.4.4-vasp.4.6
   LMAXPAW     = -100 max onsite density
   LMAXMIX     =    2 max onsite mixed and CHGCAR
   VOSKOWN=      0    Vosko Wilk Nusair interpolation
   ROPT   =    0.00000   0.00000
 Ionic relaxation
   EDIFFG = 0.1E-05   stopping-criterion for IOM
   NSW    =      0    number of steps for IOM
   NBLOCK =      1;   KBLOCK =      1    inner block; outer block 
   IBRION =     -1    ionic relax: 0-MD 1-quasi-New 2-CG
   NFREE  =      0    steps in history (QN), initial steepest desc. (CG)
   ISIF   =      0    stress and relaxation
   IWAVPR =     10    prediction:  0-non 1-charg 2-wave 3-comb
   ISYM   =      2    0-nonsym 1-usesym 2-fastsym
   LCORR  =      T    Harris-Foulkes like correction to forces

   POTIM  = 0.5000    time-step for ionic-motion
   TEIN   =    0.0    initial temperature
   TEBEG  =    0.0;   TEEND  =   0.0 temperature during run
   SMASS  =  -3.00    Nose mass-parameter (am)
   estimated Nose-frequenzy (Omega)   =  0.10E-29 period in steps = 0.13E+47 mass=  -0.347E-26a.u.
   SCALEE = 1.0000    scale energy and forces
   NPACO  =    256;   APACO  = 16.0  distance and # of slots for P.C.
   PSTRESS=    0.0 pullay stress

  Mass of Ions in am
   POMASS =  12.01 16.00
  Ionic Valenz
   ZVAL   =   4.00  6.00
  Atomic Wigner-Seitz radii
   RWIGS  =  -1.00 -1.00
  virtual crystal weights 
   VCA    =   1.00  1.00
   NELECT =     216.0000    total number of electrons
   NUPDOWN=      -1.0000    fix difference up-down

 DOS related values:
   EMIN   =  10.00;   EMAX   =-10.00  energy-range for DOS
   EFERMI =   0.00
   ISMEAR =     0;   SIGMA  =   0.01  broadening in eV -4-tet -1-fermi 0-gaus

 Electronic relaxation 2 (details)
   IALGO  =     58    algorithm
   LDIAG  =      T    sub-space diagonalisation (order eigenvalues)
   LSUBROT=      F    optimize rotation matrix (better conditioning)
   TURBO    =      0    0=normal 1=particle mesh
   IRESTART =      0    0=no restart 2=restart with 2 vectors
   NREBOOT  =      0    no. of reboots
   NMIN     =      0    reboot dimension
   EREF     =   0.00    reference energy to select bands
   IMIX   =      4    mixing-type and parameters
     AMIX     =   0.40;   BMIX     =  1.00
     AMIX_MAG =   1.60;   BMIX_MAG =  1.00
     AMIN     =   0.10
     WC   =   100.;   INIMIX=   1;  MIXPRE=   1;  MAXMIX= -45

 Intra band minimization:
   WEIMIN = 0.0000     energy-eigenvalue tresh-hold
   EBREAK =  0.18E-09  absolut break condition
   DEPER  =   0.30     relativ break condition  

   TIME   =   0.40     timestep for ELM

  volume/ion in A,a.u.               =      62.05       418.76
  Fermi-wavevector in a.u.,A,eV,Ry     =   0.660508  1.248179  5.935820  0.436270
  Thomas-Fermi vector in A             =   1.732977
 
 Write flags
   LWAVE        =      F    write WAVECAR
   LDOWNSAMPLE  =      F    k-point downsampling of WAVECAR
   LCHARG       =      T    write CHGCAR
   LVTOT        =      F    write LOCPOT, total local potential
   LVHAR        =      F    write LOCPOT, Hartree potential only
   LELF         =      F    write electronic localiz. function (ELF)
   LORBIT       =      0    0 simple, 1 ext, 2 COOP (PROOUT), +10 PAW based schemes


 Dipole corrections
   LMONO  =      F    monopole corrections only (constant potential shift)
   LDIPOL =      F    correct potential (dipole corrections)
   IDIPOL =      0    1-x, 2-y, 3-z, 4-all directions 
   EPSILON=  1.0000000 bulk dielectric constant

 Exchange correlation treatment:
   GGA     =    ML    GGA type
   LEXCH   =    44    internal setting for exchange type
   VOSKOWN=      0    Vosko Wilk Nusair interpolation
   LHFCALC =     F    Hartree Fock is set to
   LHFONE  =     F    Hartree Fock one center treatment
   AEXX    =    0.0000 exact exchange contribution

 vdW DFT:
   LUSE_VDW   =     T    switch on vdW DFT
   Zab_VDW    =******    correlation parameter
   PARAM1     =0.1234
   PARAM2     =1.0000
   PARAM3     =0.0000
   -- rVV10 --
   BPARAM     = 6.3000
   CPARAM     = 0.0093

 Linear response parameters
   LEPSILON=     F    determine dielectric tensor
   LRPA    =     F    only Hartree local field effects (RPA)
   LNABLA  =     F    use nabla operator in PAW spheres
   LVEL    =     F    velocity operator in full k-point grid
   LINTERFAST=   F  fast interpolation
   KINTER  =     0    interpolate to denser k-point grid
   CSHIFT  =0.1000    complex shift for real part using Kramers Kronig
   OMEGAMAX=  -1.0    maximum frequency
   DEG_THRESHOLD= 0.2000000E-02 threshold for treating states as degnerate
   RTIME   =   -0.100 relaxation time in fs
  (WPLASMAI=    0.000 imaginary part of plasma frequency in eV, 0.658/RTIME)
   DFIELD  = 0.0000000 0.0000000 0.0000000 field for delta impulse in time
 
 Orbital magnetization related:
   ORBITALMAG=     F  switch on orbital magnetization
   LCHIMAG   =     F  perturbation theory with respect to B field
   DQ        =  0.001000  dq finite difference perturbation B field
   LLRAUG    =     F  two centre corrections for induced B field



--------------------------------------------------------------------------------------------------------


 Static calculation
 charge density and potential will be updated during run
 non-spin polarized calculation
 Conjugate gradient for all bands (Freysoldt, et al. PRB 79, 241103 (2009))
 preconditioned conjugated gradient                                        
 perform sub-space diagonalisation
    before iterative eigenvector-optimisation
 modified Broyden-mixing scheme, WC =      100.0
 initial mixing is a Kerker type mixing with AMIX =  0.4000 and BMIX =      1.0000
 Hartree-type preconditioning will be used
 using additional bands           28
 reciprocal scheme for non local part
 use partial core corrections
 no Harris-corrections to forces 
 use gradient corrections 
 use of overlap-Matrix (Vanderbilt PP)
 Gauss-broadening in eV      SIGMA  =   0.01


--------------------------------------------------------------------------------------------------------


  energy-cutoff  :     1000.00
  volume of cell :     3288.85
      direct lattice vectors                 reciprocal lattice vectors
    12.325000000  0.000000000  0.000000000     0.081135903  0.046843835  0.000000000
    -6.162500000 10.673763102  0.000000000     0.000000000  0.093687670  0.000000000
     0.000000000  0.000000000 25.000000000     0.000000000  0.000000000  0.040000000

  length of vectors
    12.325000000 12.325000000 25.000000000     0.093687670  0.093687670  0.040000000


 
 k-points in units of 2pi/SCALE and weight: auto                                    
   0.00000000  0.00000000  0.00000000       1.000
 
 k-points in reciprocal lattice and weights: auto                                    
   0.00000000  0.00000000  0.00000000       1.000
 
 position of ions in fractional coordinates (direct lattice) 
   0.97245084  0.00032082  0.00056671
   0.03911838  0.13365950  0.00044017
   0.17244363  0.00029545  0.00049963
   0.23909628  0.13364792  0.00025647
   0.97245206  0.20032201  0.00048522
   0.03912836  0.33364377  0.00044415
   0.17245176  0.20035455  0.00021917
   0.23912436  0.33366572  0.00007226
   0.37246557  0.00032440  0.00045391
   0.43913747  0.13361994  0.00025834
   0.97244982  0.40030936  0.00054761
   0.03912498  0.53363679  0.00057341
   0.37241618  0.40032948  0.00000000
   0.43909960  0.53363898  0.00023241
   0.57244368  0.00031213  0.00055958
   0.63911021  0.13363175  0.00054727
   0.97245270  0.60030565  0.00064029
   0.03912449  0.73364036  0.00065451
   0.57243347  0.60030624  0.00040289
   0.63911189  0.73364188  0.00052791
   0.17245463  0.40031823  0.00028904
   0.23912018  0.53363655  0.00037851
   0.37245975  0.20029599  0.00008900
   0.43910710  0.33367342  0.00005576
   0.17245216  0.60031151  0.00052434
   0.23912337  0.73363857  0.00057513
   0.57243108  0.20028917  0.00041330
   0.63911277  0.33361863  0.00046238
   0.37243981  0.60030802  0.00036284
   0.43911609  0.73363786  0.00049419
   0.57246936  0.40032050  0.00033992
   0.63911941  0.53365087  0.00045961
   0.77244572  0.00031543  0.00059616
   0.83911628  0.13364020  0.00057531
   0.77244051  0.20030743  0.00058103
   0.83912024  0.33363573  0.00058547
   0.77244632  0.40029837  0.00058298
   0.83911898  0.53363396  0.00062110
   0.77245614  0.60030817  0.00059571
   0.83911503  0.73364318  0.00063151
   0.97245531  0.80030558  0.00065223
   0.03911471  0.93364329  0.00059805
   0.17245797  0.80031221  0.00062337
   0.23913455  0.93364719  0.00054485
   0.37245140  0.80031667  0.00055140
   0.43912449  0.93364477  0.00054143
   0.57244110  0.80031005  0.00053453
   0.63911507  0.93363899  0.00058764
   0.77244510  0.80031319  0.00060206
   0.83911661  0.93364434  0.00060683
   0.37302101  0.25122688  0.11224620
   0.42087980  0.18931315  0.11482308
   0.32515698  0.31316719  0.10986801
 
 position of ions in cartesian coordinates  (Angst):
  11.98347958  0.00342433  0.01416777
  -0.34154264  1.42664989  0.01100432
   2.12354700  0.00315355  0.01249070
   2.12325634  1.42652621  0.00641170
  10.75098721  2.13818970  0.01213047
  -1.57382270  3.56123457  0.01110375
   0.89078307  2.13853702  0.00547917
   0.89099273  3.56146885  0.00180651
   4.58863896  0.00346260  0.01134782
   4.58893648  1.42622757  0.00645846
   9.51853763  4.27280730  0.01369027
  -2.80632132  5.69591267  0.01433526
   2.12299894  4.27302204  0.00000000
   2.12335237  5.69593607  0.00581036
   7.05344483  0.00333155  0.01398950
   7.05352764  1.42635365  0.01368187
   8.28609598  6.40752033  0.01600723
  -4.03884931  7.83070339  0.01636283
   3.35585531  6.40752662  0.01007237
   3.35598594  7.83071962  0.01319763
  -0.34145776  4.27290193  0.00722612
  -0.34137895  5.69591010  0.00946273
   3.35624236  2.13791198  0.00222492
   3.35573251  3.56155103  0.00139405
  -1.57394684  6.40758280  0.01310850
  -1.57385216  7.83068434  0.01437823
   5.82093107  2.13783916  0.01033241
   5.82114012  3.56096622  0.01155939
   0.89092245  6.40754561  0.00907111
   0.89106251  7.83067670  0.01235474
   4.58870974  4.27292622  0.00849795
   4.58852320  5.69606300  0.01149026
   9.51844972  0.00336679  0.01490402
   9.51855036  1.42644387  0.01438264
   8.28593477  2.13803408  0.01452582
   8.28612680  3.56114872  0.01463668
   7.05356221  4.27268994  0.01457444
   7.05362213  5.69588251  0.01552751
   5.82112285  6.40754723  0.01489279
   5.82101669  7.83073350  0.01578780
   7.05362858  8.54227219  0.01630582
  -5.27148792  9.96548729  0.01495127
  -2.80637951  8.54234295  0.01558431
  -2.80626749  9.96552896  0.01362126
  -0.34148805  8.54239058  0.01378498
  -0.34137657  9.96550309  0.01353576
   2.12342586  8.54231992  0.01336337
   2.12354296  9.96544135  0.01469111
   4.58845581  8.54235337  0.01505154
   4.58852904  9.96549848  0.01517076
   3.04929830  2.68153618  2.80615512
   4.02070129  2.02068374  2.87057698
   2.07766701  3.34267235  2.74670025
 


--------------------------------------------------------------------------------------------------------


 k-point   1 :   0.0000 0.0000 0.0000  plane waves:  236157

 maximum and minimum number of plane-waves per node :      8440     8428

 maximum number of plane-waves:    236157
 maximum index in each direction: 
   IXMAX=   31   IYMAX=   31   IZMAX=   64
   IXMIN=  -31   IYMIN=  -31   IZMIN=  -64


 parallel 3D FFT for wavefunctions:
    minimum data exchange during FFTs selected (reduces bandwidth)
 parallel 3D FFT for charge:
    minimum data exchange during FFTs selected (reduces bandwidth)


 total amount of memory used by VASP MPI-rank0   100580. kBytes
=======================================================================

   base      :      30000. kBytes
   nonl-proj :       8229. kBytes
   fftplans  :      18352. kBytes
   grid      :      30208. kBytes
   one-center:          6. kBytes
   wavefun   :      13785. kBytes
 
     INWAV:  cpu time    0.0000: real time    0.0000
 Broyden mixing: mesh for mixing (old mesh)
   NGX = 63   NGY = 63   NGZ =129
  (NGX  =256   NGY  =256   NGZ  =540)
  gives a total of 512001 points

 initial charge density was supplied:
 charge density of overlapping atoms calculated
 number of electron     216.0000000 magnetization 
 keeping initial charge density in first step


--------------------------------------------------------------------------------------------------------


 Maximum index for augmentation-charges          471 (set IRDMAX)


--------------------------------------------------------------------------------------------------------


 First call to EWALD:  gamma=   0.119
 Maximum number of real-space cells 4x 4x 2
 Maximum number of reciprocal cells 2x 2x 4

    FEWALD:  cpu time    0.0026: real time    0.0027


--------------------------------------- Iteration      1(   1)  ---------------------------------------


vdW kernel read from vdw_kernel.bindat
  0.0000  0.2424  0.5071  0.7962  1.1119  1.4567  1.8333  2.2446  2.6937  3.1842
  3.7199  4.3049  4.9438  5.6415  6.4036  7.2358  8.1446  9.1372 10.2212 11.4050
 12.6979 14.1099 15.6519 17.3360 19.1751 21.1837 23.3773 25.7729 28.3892 31.2465
 34.3669 37.7748 41.4965 45.5611 50.0000
 
    POTLOK:  cpu time    4.5493: real time    4.5880
    SETDIJ:  cpu time    0.0539: real time    0.0540
    TRIAL :  cpu time    2.0892: real time    2.1103
    CORREC:  cpu time    0.0007: real time    0.0009
    --------------------------------------------
      LOOP:  cpu time    6.6972: real time    6.7700

 eigenvalue-minimisations  :   288
 total energy-change (2. order) : 0.2842045E+04  (-0.1020974E+05)
 number of electron     216.0000000 magnetization 
 augmentation part      216.0000000 magnetization 

 Free energy of the ion-electron system (eV)
  ---------------------------------------------------
  alpha Z        PSCENC =        47.94900195
  Ewald energy   TEWEN  =     48114.18302124
  -Hartree energ DENC   =    -54181.92891958
  -exchange      EXHF   =         0.00000000
  -V(xc)+E(xc)   XCENC  =       352.98984923
  PAW double counting   =      6601.42964284    -6299.49404826
  entropy T*S    EENTRO =        -0.00000000
  eigenvalues    EBANDS =      -350.49639860
  atomic energy  EATOM  =      8557.41276814
  ---------------------------------------------------
  free energy    TOTEN  =      2842.04491696 eV

  energy without entropy =     2842.04491696  energy(sigma->0) =     2842.04491696


--------------------------------------------------------------------------------------------------------




--------------------------------------- Iteration      1(   2)  ---------------------------------------


    TRIAL :  cpu time    2.8829: real time    2.9103
    CORREC:  cpu time    0.0001: real time    0.0001
    --------------------------------------------
      LOOP:  cpu time    2.9472: real time    2.9788

 eigenvalue-minimisations  :   448
 total energy-change (2. order) :-0.2345581E+04  (-0.2195725E+04)
 number of electron     216.0000000 magnetization 
 augmentation part      216.0000000 magnetization 

 Free energy of the ion-electron system (eV)
  ---------------------------------------------------
  alpha Z        PSCENC =        47.94900195
  Ewald energy   TEWEN  =     48114.18302124
  -Hartree energ DENC   =    -54181.92891958
  -exchange      EXHF   =         0.00000000
  -V(xc)+E(xc)   XCENC  =       352.98984923
  PAW double counting   =      6601.42964284    -6299.49404826
  entropy T*S    EENTRO =        -0.00000000
  eigenvalues    EBANDS =     -2696.07711637
  atomic energy  EATOM  =      8557.41276814
  ---------------------------------------------------
  free energy    TOTEN  =       496.46419920 eV

  energy without entropy =      496.46419920  energy(sigma->0) =      496.46419920


--------------------------------------------------------------------------------------------------------




--------------------------------------- Iteration      1(   3)  ---------------------------------------


    TRIAL :  cpu time    2.3856: real time    2.4073
    CORREC:  cpu time    0.0001: real time    0.0004
    --------------------------------------------
      LOOP:  cpu time    2.4743: real time    2.5266

 eigenvalue-minimisations  :   352
 total energy-change (2. order) :-0.8462122E+03  (-0.8324553E+03)
 number of electron     216.0000000 magnetization 
 augmentation part      216.0000000 magnetization 

 Free energy of the ion-electron system (eV)
  ---------------------------------------------------
  alpha Z        PSCENC =        47.94900195
  Ewald energy   TEWEN  =     48114.18302124
  -Hartree energ DENC   =    -54181.92891958
  -exchange      EXHF   =         0.00000000
  -V(xc)+E(xc)   XCENC  =       352.98984923
  PAW double counting   =      6601.42964284    -6299.49404826
  entropy T*S    EENTRO =        -0.00000000
  eigenvalues    EBANDS =     -3542.28929382
  atomic energy  EATOM  =      8557.41276814
  ---------------------------------------------------
  free energy    TOTEN  =      -349.74797826 eV

  energy without entropy =     -349.74797826  energy(sigma->0) =     -349.74797826


--------------------------------------------------------------------------------------------------------




--------------------------------------- Iteration      1(   4)  ---------------------------------------


    TRIAL :  cpu time    2.2673: real time    2.2872
    CORREC:  cpu time    0.0001: real time    0.0001
    --------------------------------------------
      LOOP:  cpu time    2.3140: real time    2.3626

 eigenvalue-minimisations  :   328
 total energy-change (2. order) :-0.7991645E+02  (-0.7892748E+02)
 number of electron     216.0000000 magnetization 
 augmentation part      216.0000000 magnetization 

 Free energy of the ion-electron system (eV)
  ---------------------------------------------------
  alpha Z        PSCENC =        47.94900195
  Ewald energy   TEWEN  =     48114.18302124
  -Hartree energ DENC   =    -54181.92891958
  -exchange      EXHF   =         0.00000000
  -V(xc)+E(xc)   XCENC  =       352.98984923
  PAW double counting   =      6601.42964284    -6299.49404826
  entropy T*S    EENTRO =        -0.00000000
  eigenvalues    EBANDS =     -3622.20574548
  atomic energy  EATOM  =      8557.41276814
  ---------------------------------------------------
  free energy    TOTEN  =      -429.66442992 eV

  energy without entropy =     -429.66442992  energy(sigma->0) =     -429.66442992


--------------------------------------------------------------------------------------------------------




--------------------------------------- Iteration      1(   5)  ---------------------------------------


    TRIAL :  cpu time    2.4884: real time    2.5104
    CORREC:  cpu time    0.0001: real time    0.0001
    CHARGE:  cpu time    0.1776: real time    0.1804
    --------------------------------------------
      LOOP:  cpu time    2.7316: real time    2.7986

 eigenvalue-minimisations  :   368
 total energy-change (2. order) :-0.2479349E+01  (-0.2461759E+01)
 number of electron     216.0000000 magnetization 
 augmentation part       -0.1500356 magnetization 

 Free energy of the ion-electron system (eV)
  ---------------------------------------------------
  alpha Z        PSCENC =        47.94900195
  Ewald energy   TEWEN  =     48114.18302124
  -Hartree energ DENC   =    -54181.92891958
  -exchange      EXHF   =         0.00000000
  -V(xc)+E(xc)   XCENC  =       352.98984923
  PAW double counting   =      6601.42964284    -6299.49404826
  entropy T*S    EENTRO =        -0.00000000
  eigenvalues    EBANDS =     -3624.68509406
  atomic energy  EATOM  =      8557.41276814
  ---------------------------------------------------
  free energy    TOTEN  =      -432.14377850 eV

  energy without entropy =     -432.14377850  energy(sigma->0) =     -432.14377850


--------------------------------------------------------------------------------------------------------




--------------------------------------- Iteration      1(   6)  ---------------------------------------


    POTLOK:  cpu time    4.2576: real time    4.2932
    SETDIJ:  cpu time    0.0530: real time    0.0531
    TRIAL :  cpu time    1.1854: real time    1.1982
    CORREC:  cpu time    4.7228: real time    4.7728
    CHARGE:  cpu time    0.1783: real time    0.1824
    --------------------------------------------
      LOOP:  cpu time   10.4215: real time   10.5479

 eigenvalue-minimisations  :     0
 total energy-change (2. order) : 0.6308590E+02  (-0.2138378E+02)
 number of electron     216.0000000 magnetization 
 augmentation part       -0.2773033 magnetization 

 Free energy of the ion-electron system (eV)
  ---------------------------------------------------
  alpha Z        PSCENC =        47.94900195
  Ewald energy   TEWEN  =     48114.18302124
  -Hartree energ DENC   =    -55748.10072073
  -exchange      EXHF   =         0.00000000
  -V(xc)+E(xc)   XCENC  =       408.03610106
  PAW double counting   =     52766.78358942   -52488.89150708
  entropy T*S    EENTRO =        -0.00000000
  eigenvalues    EBANDS =     -2026.43012796
  atomic energy  EATOM  =      8557.41276814
  ---------------------------------------------------
  free energy    TOTEN  =      -369.05787395 eV

  energy without entropy =     -369.05787395  energy(sigma->0) =     -369.05787395


--------------------------------------------------------------------------------------------------------




--------------------------------------- Iteration      1(   7)  ---------------------------------------


    POTLOK:  cpu time    4.2437: real time    4.2765
    SETDIJ:  cpu time    0.0527: real time    0.0529
    TRIAL :  cpu time    1.1651: real time    1.1758
    CORREC:  cpu time    4.7376: real time    4.7743
    CHARGE:  cpu time    0.1797: real time    0.1816
    --------------------------------------------
      LOOP:  cpu time   10.4710: real time   10.5562

 eigenvalue-minimisations  :     0
 total energy-change (2. order) :-0.2147064E+02  (-0.2096160E+01)
 number of electron     216.0000000 magnetization 
 augmentation part       -0.3322153 magnetization 

 Free energy of the ion-electron system (eV)
  ---------------------------------------------------
  alpha Z        PSCENC =        47.94900195
  Ewald energy   TEWEN  =     48114.18302124
  -Hartree energ DENC   =    -55143.40393958
  -exchange      EXHF   =         0.00000000
  -V(xc)+E(xc)   XCENC  =       385.83054144
  PAW double counting   =     68840.13495110   -68555.21667305
  entropy T*S    EENTRO =        -0.00000000
  eigenvalues    EBANDS =     -2637.41818058
  atomic energy  EATOM  =      8557.41276814
  ---------------------------------------------------
  free energy    TOTEN  =      -390.52850934 eV

  energy without entropy =     -390.52850934  energy(sigma->0) =     -390.52850934


--------------------------------------------------------------------------------------------------------




--------------------------------------- Iteration      1(   8)  ---------------------------------------


    POTLOK:  cpu time    4.2445: real time    4.2772
    SETDIJ:  cpu time    0.0527: real time    0.0528
    TRIAL :  cpu time    1.1672: real time    1.1782
    CORREC:  cpu time    4.7582: real time    4.7944
    CHARGE:  cpu time    0.1829: real time    0.1848
    --------------------------------------------
      LOOP:  cpu time   10.4287: real time   10.5262

 eigenvalue-minimisations  :     0
 total energy-change (2. order) :-0.2095656E+01  (-0.5978006E+00)
 number of electron     216.0000000 magnetization 
 augmentation part       -0.3535659 magnetization 

 Free energy of the ion-electron system (eV)
  ---------------------------------------------------
  alpha Z        PSCENC =        47.94900195
  Ewald energy   TEWEN  =     48114.18302124
  -Hartree energ DENC   =    -55124.73931742
  -exchange      EXHF   =         0.00000000
  -V(xc)+E(xc)   XCENC  =       385.42511772
  PAW double counting   =     74223.32543822   -73937.30405395
  entropy T*S    EENTRO =        -0.00000000
  eigenvalues    EBANDS =     -2658.87614162
  atomic energy  EATOM  =      8557.41276814
  ---------------------------------------------------
  free energy    TOTEN  =      -392.62416571 eV

  energy without entropy =     -392.62416571  energy(sigma->0) =     -392.62416571


--------------------------------------------------------------------------------------------------------




--------------------------------------- Iteration      1(   9)  ---------------------------------------


    POTLOK:  cpu time    4.2723: real time    4.3058
    SETDIJ:  cpu time    0.0527: real time    0.0529
    TRIAL :  cpu time    1.1645: real time    1.1751
    CORREC:  cpu time    4.7529: real time    4.7953
    CHARGE:  cpu time    0.1804: real time    0.1822
    --------------------------------------------
      LOOP:  cpu time   10.4373: real time   10.5546

 eigenvalue-minimisations  :     0
 total energy-change (2. order) :-0.5976563E+00  (-0.2400671E+00)
 number of electron     216.0000000 magnetization 
 augmentation part       -0.3614338 magnetization 

 Free energy of the ion-electron system (eV)
  ---------------------------------------------------
  alpha Z        PSCENC =        47.94900195
  Ewald energy   TEWEN  =     48114.18302124
  -Hartree energ DENC   =    -55136.38787144
  -exchange      EXHF   =         0.00000000
  -V(xc)+E(xc)   XCENC  =       385.80910661
  PAW double counting   =     78576.46103474   -78289.97465752
  entropy T*S    EENTRO =        -0.00000000
  eigenvalues    EBANDS =     -2648.67422570
  atomic energy  EATOM  =      8557.41276814
  ---------------------------------------------------
  free energy    TOTEN  =      -393.22182197 eV

  energy without entropy =     -393.22182197  energy(sigma->0) =     -393.22182197


--------------------------------------------------------------------------------------------------------




--------------------------------------- Iteration      1(  10)  ---------------------------------------


    POTLOK:  cpu time    4.2651: real time    4.2957
    SETDIJ:  cpu time    0.0529: real time    0.0531
    TRIAL :  cpu time    1.1633: real time    1.1755
    CORREC:  cpu time    4.7721: real time    4.8083
    CHARGE:  cpu time    0.1802: real time    0.1821
    --------------------------------------------
      LOOP:  cpu time   10.4863: real time   10.5744

 eigenvalue-minimisations  :     0
 total energy-change (2. order) :-0.2392315E+00  (-0.1106106E+00)
 number of electron     216.0000000 magnetization 
 augmentation part       -0.3590260 magnetization 

 Free energy of the ion-electron system (eV)
  ---------------------------------------------------
  alpha Z        PSCENC =        47.94900195
  Ewald energy   TEWEN  =     48114.18302124
  -Hartree energ DENC   =    -55129.88310941
  -exchange      EXHF   =         0.00000000
  -V(xc)+E(xc)   XCENC  =       385.73734795
  PAW double counting   =     80397.63428173   -80110.85472481
  entropy T*S    EENTRO =        -0.00000000
  eigenvalues    EBANDS =     -2655.63964029
  atomic energy  EATOM  =      8557.41276814
  ---------------------------------------------------
  free energy    TOTEN  =      -393.46105349 eV

  energy without entropy =     -393.46105349  energy(sigma->0) =     -393.46105349


--------------------------------------------------------------------------------------------------------




--------------------------------------- Iteration      1(  11)  ---------------------------------------


    POTLOK:  cpu time    4.2451: real time    4.2783
    SETDIJ:  cpu time    0.0528: real time    0.0529
    TRIAL :  cpu time    1.1642: real time    1.1765
    CORREC:  cpu time    4.7597: real time    4.7980
    CHARGE:  cpu time    0.1806: real time    0.1823
    --------------------------------------------
      LOOP:  cpu time   10.4886: real time   10.5821

 eigenvalue-minimisations  :     0
 total energy-change (2. order) :-0.1099591E+00  (-0.4296487E-01)
 number of electron     216.0000000 magnetization 
 augmentation part       -0.3562224 magnetization 

 Free energy of the ion-electron system (eV)
  ---------------------------------------------------
  alpha Z        PSCENC =        47.94900195
  Ewald energy   TEWEN  =     48114.18302124
  -Hartree energ DENC   =    -55121.25296096
  -exchange      EXHF   =         0.00000000
  -V(xc)+E(xc)   XCENC  =       385.62813033
  PAW double counting   =     80412.43513071   -80125.59858446
  entropy T*S    EENTRO =        -0.00000000
  eigenvalues    EBANDS =     -2664.32751951
  atomic energy  EATOM  =      8557.41276814
  ---------------------------------------------------
  free energy    TOTEN  =      -393.57101256 eV

  energy without entropy =     -393.57101256  energy(sigma->0) =     -393.57101256


--------------------------------------------------------------------------------------------------------




--------------------------------------- Iteration      1(  12)  ---------------------------------------


    POTLOK:  cpu time    4.2621: real time    4.3041
    SETDIJ:  cpu time    0.0529: real time    0.0531
    TRIAL :  cpu time    1.1711: real time    1.1820
    CORREC:  cpu time    4.7598: real time    4.7962
    CHARGE:  cpu time    0.1809: real time    0.1827
    --------------------------------------------
      LOOP:  cpu time   10.4901: real time   10.5842

 eigenvalue-minimisations  :     0
 total energy-change (2. order) :-0.4281883E-01  (-0.1315096E-01)
 number of electron     216.0000000 magnetization 
 augmentation part       -0.3554932 magnetization 

 Free energy of the ion-electron system (eV)
  ---------------------------------------------------
  alpha Z        PSCENC =        47.94900195
  Ewald energy   TEWEN  =     48114.18302124
  -Hartree energ DENC   =    -55117.79546488
  -exchange      EXHF   =         0.00000000
  -V(xc)+E(xc)   XCENC  =       385.54532663
  PAW double counting   =     79856.21983307   -79569.45047786
  entropy T*S    EENTRO =        -0.00000000
  eigenvalues    EBANDS =     -2667.67783969
  atomic energy  EATOM  =      8557.41276814
  ---------------------------------------------------
  free energy    TOTEN  =      -393.61383139 eV

  energy without entropy =     -393.61383139  energy(sigma->0) =     -393.61383139


--------------------------------------------------------------------------------------------------------




--------------------------------------- Iteration      1(  13)  ---------------------------------------


    POTLOK:  cpu time    4.2506: real time    4.2817
    SETDIJ:  cpu time    0.0525: real time    0.0527
    TRIAL :  cpu time    1.1619: real time    1.1745
    CORREC:  cpu time    4.7268: real time    4.7671
    CHARGE:  cpu time    0.1809: real time    0.1829
    --------------------------------------------
      LOOP:  cpu time   10.4269: real time   10.5136

 eigenvalue-minimisations  :     0
 total energy-change (2. order) :-0.1313722E-01  (-0.4076438E-02)
 number of electron     216.0000000 magnetization 
 augmentation part       -0.3552851 magnetization 

 Free energy of the ion-electron system (eV)
  ---------------------------------------------------
  alpha Z        PSCENC =        47.94900195
  Ewald energy   TEWEN  =     48114.18302124
  -Hartree energ DENC   =    -55117.21016500
  -exchange      EXHF   =         0.00000000
  -V(xc)+E(xc)   XCENC  =       385.50476161
  PAW double counting   =     79423.34028615   -79136.63088343
  entropy T*S    EENTRO =        -0.00000000
  eigenvalues    EBANDS =     -2668.17575926
  atomic energy  EATOM  =      8557.41276814
  ---------------------------------------------------
  free energy    TOTEN  =      -393.62696860 eV

  energy without entropy =     -393.62696860  energy(sigma->0) =     -393.62696860


--------------------------------------------------------------------------------------------------------




--------------------------------------- Iteration      1(  14)  ---------------------------------------


    POTLOK:  cpu time    4.2604: real time    4.2970
    SETDIJ:  cpu time    0.0525: real time    0.0526
    TRIAL :  cpu time    1.1626: real time    1.1765
    CORREC:  cpu time    4.7685: real time    4.8059
    CHARGE:  cpu time    0.1814: real time    0.1832
    --------------------------------------------
      LOOP:  cpu time   10.4722: real time   10.5761

 eigenvalue-minimisations  :     0
 total energy-change (2. order) :-0.4072679E-02  (-0.1579505E-02)
 number of electron     216.0000000 magnetization 
 augmentation part       -0.3556285 magnetization 

 Free energy of the ion-electron system (eV)
  ---------------------------------------------------
  alpha Z        PSCENC =        47.94900195
  Ewald energy   TEWEN  =     48114.18302124
  -Hartree energ DENC   =    -55117.06389863
  -exchange      EXHF   =         0.00000000
  -V(xc)+E(xc)   XCENC  =       385.48048184
  PAW double counting   =     79243.68630062   -78957.00625411
  entropy T*S    EENTRO =        -0.00000000
  eigenvalues    EBANDS =     -2668.27246234
  atomic energy  EATOM  =      8557.41276814
  ---------------------------------------------------
  free energy    TOTEN  =      -393.63104128 eV

  energy without entropy =     -393.63104128  energy(sigma->0) =     -393.63104128


--------------------------------------------------------------------------------------------------------




--------------------------------------- Iteration      1(  15)  ---------------------------------------


    POTLOK:  cpu time    4.2605: real time    4.2953
    SETDIJ:  cpu time    0.0525: real time    0.0527
    TRIAL :  cpu time    1.1651: real time    1.1762
    CORREC:  cpu time    4.7340: real time    4.7711
    CHARGE:  cpu time    0.1807: real time    0.1826
    --------------------------------------------
      LOOP:  cpu time   10.4736: real time   10.5611

 eigenvalue-minimisations  :     0
 total energy-change (2. order) :-0.1576414E-02  (-0.8770628E-03)
 number of electron     216.0000000 magnetization 
 augmentation part       -0.3557411 magnetization 

 Free energy of the ion-electron system (eV)
  ---------------------------------------------------
  alpha Z        PSCENC =        47.94900195
  Ewald energy   TEWEN  =     48114.18302124
  -Hartree energ DENC   =    -55116.73113070
  -exchange      EXHF   =         0.00000000
  -V(xc)+E(xc)   XCENC  =       385.45601445
  PAW double counting   =     79176.68198278   -78890.01006564
  entropy T*S    EENTRO =        -0.00000000
  eigenvalues    EBANDS =     -2668.57420993
  atomic energy  EATOM  =      8557.41276814
  ---------------------------------------------------
  free energy    TOTEN  =      -393.63261770 eV

  energy without entropy =     -393.63261770  energy(sigma->0) =     -393.63261770


--------------------------------------------------------------------------------------------------------




--------------------------------------- Iteration      1(  16)  ---------------------------------------


    POTLOK:  cpu time    4.2400: real time    4.2725
    SETDIJ:  cpu time    0.0527: real time    0.0529
    TRIAL :  cpu time    1.1654: real time    1.1766
    CORREC:  cpu time    4.7281: real time    4.7652
    CHARGE:  cpu time    0.1803: real time    0.1821
    --------------------------------------------
      LOOP:  cpu time   10.4436: real time   10.5292

 eigenvalue-minimisations  :     0
 total energy-change (2. order) :-0.8732332E-03  (-0.5144952E-03)
 number of electron     216.0000000 magnetization 
 augmentation part       -0.3557243 magnetization 

 Free energy of the ion-electron system (eV)
  ---------------------------------------------------
  alpha Z        PSCENC =        47.94900195
  Ewald energy   TEWEN  =     48114.18302124
  -Hartree energ DENC   =    -55117.13715337
  -exchange      EXHF   =         0.00000000
  -V(xc)+E(xc)   XCENC  =       385.46947508
  PAW double counting   =     79111.88761905   -78825.22108028
  entropy T*S    EENTRO =        -0.00000000
  eigenvalues    EBANDS =     -2668.17714275
  atomic energy  EATOM  =      8557.41276814
  ---------------------------------------------------
  free energy    TOTEN  =      -393.63349093 eV

  energy without entropy =     -393.63349093  energy(sigma->0) =     -393.63349093


--------------------------------------------------------------------------------------------------------




--------------------------------------- Iteration      1(  17)  ---------------------------------------


    POTLOK:  cpu time    4.4302: real time    4.4732
    SETDIJ:  cpu time    0.0526: real time    0.0528
    TRIAL :  cpu time    1.1812: real time    1.1923
    CORREC:  cpu time    4.7367: real time    4.7739
    CHARGE:  cpu time    0.1802: real time    0.1821
    --------------------------------------------
      LOOP:  cpu time   10.6277: real time   10.7568

 eigenvalue-minimisations  :     0
 total energy-change (2. order) :-0.5131042E-03  (-0.2233204E-03)
 number of electron     216.0000000 magnetization 
 augmentation part       -0.3557092 magnetization 

 Free energy of the ion-electron system (eV)
  ---------------------------------------------------
  alpha Z        PSCENC =        47.94900195
  Ewald energy   TEWEN  =     48114.18302124
  -Hartree energ DENC   =    -55117.31144166
  -exchange      EXHF   =         0.00000000
  -V(xc)+E(xc)   XCENC  =       385.47691879
  PAW double counting   =     79062.11132027   -78775.44199432
  entropy T*S    EENTRO =        -0.00000000
  eigenvalues    EBANDS =     -2668.01359844
  atomic energy  EATOM  =      8557.41276814
  ---------------------------------------------------
  free energy    TOTEN  =      -393.63400403 eV

  energy without entropy =     -393.63400403  energy(sigma->0) =     -393.63400403


--------------------------------------------------------------------------------------------------------




--------------------------------------- Iteration      1(  18)  ---------------------------------------


    POTLOK:  cpu time    4.2536: real time    4.2840
    SETDIJ:  cpu time    0.0530: real time    0.0532
    TRIAL :  cpu time    1.1638: real time    1.1749
    CORREC:  cpu time    4.7312: real time    4.7690
    CHARGE:  cpu time    0.1805: real time    0.1823
    --------------------------------------------
      LOOP:  cpu time   10.4209: real time   10.5041

 eigenvalue-minimisations  :     0
 total energy-change (2. order) :-0.2237641E-03  (-0.8170460E-04)
 number of electron     216.0000000 magnetization 
 augmentation part       -0.3556719 magnetization 

 Free energy of the ion-electron system (eV)
  ---------------------------------------------------
  alpha Z        PSCENC =        47.94900195
  Ewald energy   TEWEN  =     48114.18302124
  -Hartree energ DENC   =    -55117.33452698
  -exchange      EXHF   =         0.00000000
  -V(xc)+E(xc)   XCENC  =       385.47755336
  PAW double counting   =     79060.92110124   -78774.24660692
  entropy T*S    EENTRO =        -0.00000000
  eigenvalues    EBANDS =     -2667.99653985
  atomic energy  EATOM  =      8557.41276814
  ---------------------------------------------------
  free energy    TOTEN  =      -393.63422780 eV

  energy without entropy =     -393.63422780  energy(sigma->0) =     -393.63422780


--------------------------------------------------------------------------------------------------------




--------------------------------------- Iteration      1(  19)  ---------------------------------------


    POTLOK:  cpu time    4.3464: real time    4.3776
    SETDIJ:  cpu time    0.0527: real time    0.0529
    TRIAL :  cpu time    1.1641: real time    1.1758
    CORREC:  cpu time    4.7471: real time    4.7850
    CHARGE:  cpu time    0.1806: real time    0.1825
    --------------------------------------------
      LOOP:  cpu time   10.5575: real time   10.6409

 eigenvalue-minimisations  :     0
 total energy-change (2. order) :-0.8208581E-04  (-0.3270815E-04)
 number of electron     216.0000000 magnetization 
 augmentation part       -0.3556788 magnetization 

 Free energy of the ion-electron system (eV)
  ---------------------------------------------------
  alpha Z        PSCENC =        47.94900195
  Ewald energy   TEWEN  =     48114.18302124
  -Hartree energ DENC   =    -55117.41950346
  -exchange      EXHF   =         0.00000000
  -V(xc)+E(xc)   XCENC  =       385.48121744
  PAW double counting   =     79085.07461319   -78798.39835037
  entropy T*S    EENTRO =        -0.00000000
  eigenvalues    EBANDS =     -2667.91707802
  atomic energy  EATOM  =      8557.41276814
  ---------------------------------------------------
  free energy    TOTEN  =      -393.63430988 eV

  energy without entropy =     -393.63430988  energy(sigma->0) =     -393.63430988


--------------------------------------------------------------------------------------------------------




--------------------------------------- Iteration      1(  20)  ---------------------------------------


    POTLOK:  cpu time    4.2451: real time    4.2761
    SETDIJ:  cpu time    0.0525: real time    0.0527
    TRIAL :  cpu time    1.1623: real time    1.1759
    CORREC:  cpu time    4.7226: real time    4.7690
    CHARGE:  cpu time    0.1815: real time    0.1835
    --------------------------------------------
      LOOP:  cpu time   10.4235: real time   10.5192

 eigenvalue-minimisations  :     0
 total energy-change (2. order) :-0.3284743E-04  (-0.1501716E-04)
 number of electron     216.0000000 magnetization 
 augmentation part       -0.3556342 magnetization 

 Free energy of the ion-electron system (eV)
  ---------------------------------------------------
  alpha Z        PSCENC =        47.94900195
  Ewald energy   TEWEN  =     48114.18302124
  -Hartree energ DENC   =    -55117.34184826
  -exchange      EXHF   =         0.00000000
  -V(xc)+E(xc)   XCENC  =       385.47934095
  PAW double counting   =     79109.27554100   -78822.59839058
  entropy T*S    EENTRO =        -0.00000000
  eigenvalues    EBANDS =     -2667.99377717
  atomic energy  EATOM  =      8557.41276814
  ---------------------------------------------------
  free energy    TOTEN  =      -393.63434273 eV

  energy without entropy =     -393.63434273  energy(sigma->0) =     -393.63434273


--------------------------------------------------------------------------------------------------------




--------------------------------------- Iteration      1(  21)  ---------------------------------------


    POTLOK:  cpu time    4.2570: real time    4.2889
    SETDIJ:  cpu time    0.0527: real time    0.0529
    TRIAL :  cpu time    1.1639: real time    1.1752
    CORREC:  cpu time    4.7137: real time    4.7503
    CHARGE:  cpu time    0.1787: real time    0.1805
    --------------------------------------------
      LOOP:  cpu time   10.4092: real time   10.5027

 eigenvalue-minimisations  :     0
 total energy-change (2. order) :-0.1503187E-04  (-0.6988882E-05)
 number of electron     216.0000000 magnetization 
 augmentation part       -0.3556225 magnetization 

 Free energy of the ion-electron system (eV)
  ---------------------------------------------------
  alpha Z        PSCENC =        47.94900195
  Ewald energy   TEWEN  =     48114.18302124
  -Hartree energ DENC   =    -55117.33449475
  -exchange      EXHF   =         0.00000000
  -V(xc)+E(xc)   XCENC  =       385.47990238
  PAW double counting   =     79123.04373536   -78836.36719065
  entropy T*S    EENTRO =        -0.00000000
  eigenvalues    EBANDS =     -2668.00110143
  atomic energy  EATOM  =      8557.41276814
  ---------------------------------------------------
  free energy    TOTEN  =      -393.63435776 eV

  energy without entropy =     -393.63435776  energy(sigma->0) =     -393.63435776


--------------------------------------------------------------------------------------------------------




--------------------------------------- Iteration      1(  22)  ---------------------------------------


    POTLOK:  cpu time    4.2428: real time    4.2757
    SETDIJ:  cpu time    0.0527: real time    0.0529
    TRIAL :  cpu time    1.1653: real time    1.1768
    CORREC:  cpu time    4.7238: real time    4.7630
    CHARGE:  cpu time    0.1805: real time    0.1823
    --------------------------------------------
      LOOP:  cpu time   10.4296: real time   10.5175

 eigenvalue-minimisations  :     0
 total energy-change (2. order) :-0.6952308E-05  (-0.3200202E-05)
 number of electron     216.0000000 magnetization 
 augmentation part       -0.3556112 magnetization 

 Free energy of the ion-electron system (eV)
  ---------------------------------------------------
  alpha Z        PSCENC =        47.94900195
  Ewald energy   TEWEN  =     48114.18302124
  -Hartree energ DENC   =    -55117.29204874
  -exchange      EXHF   =         0.00000000
  -V(xc)+E(xc)   XCENC  =       385.47870564
  PAW double counting   =     79126.06913869   -78839.39282754
  entropy T*S    EENTRO =        -0.00000000
  eigenvalues    EBANDS =     -2668.04212411
  atomic energy  EATOM  =      8557.41276814
  ---------------------------------------------------
  free energy    TOTEN  =      -393.63436472 eV

  energy without entropy =     -393.63436472  energy(sigma->0) =     -393.63436472


--------------------------------------------------------------------------------------------------------




--------------------------------------- Iteration      1(  23)  ---------------------------------------


    POTLOK:  cpu time    4.2719: real time    4.3029
    SETDIJ:  cpu time    0.0528: real time    0.0530
    TRIAL :  cpu time    1.1695: real time    1.1806
    CORREC:  cpu time    4.7240: real time    4.7653
    CHARGE:  cpu time    0.1784: real time    0.1822
    --------------------------------------------
      LOOP:  cpu time   10.4798: real time   10.5689

 eigenvalue-minimisations  :     0
 total energy-change (2. order) :-0.3188863E-05  (-0.1365358E-05)
 number of electron     216.0000000 magnetization 
 augmentation part       -0.3556151 magnetization 

 Free energy of the ion-electron system (eV)
  ---------------------------------------------------
  alpha Z        PSCENC =        47.94900195
  Ewald energy   TEWEN  =     48114.18302124
  -Hartree energ DENC   =    -55117.27864908
  -exchange      EXHF   =         0.00000000
  -V(xc)+E(xc)   XCENC  =       385.47850596
  PAW double counting   =     79124.06967705   -78837.39360099
  entropy T*S    EENTRO =        -0.00000000
  eigenvalues    EBANDS =     -2668.05509218
  atomic energy  EATOM  =      8557.41276814
  ---------------------------------------------------
  free energy    TOTEN  =      -393.63436790 eV

  energy without entropy =     -393.63436790  energy(sigma->0) =     -393.63436790


--------------------------------------------------------------------------------------------------------




--------------------------------------- Iteration      1(  24)  ---------------------------------------


    POTLOK:  cpu time    4.2494: real time    4.2801
    SETDIJ:  cpu time    0.0528: real time    0.0530
    TRIAL :  cpu time    1.1552: real time    1.1662
    CORREC:  cpu time    4.7361: real time    4.7736
    CHARGE:  cpu time    0.1802: real time    0.1822
    --------------------------------------------
      LOOP:  cpu time   10.4343: real time   10.5270

 eigenvalue-minimisations  :     0
 total energy-change (2. order) :-0.1357257E-05  (-0.6401186E-06)
 number of electron     216.0000000 magnetization 
 augmentation part       -0.3556281 magnetization 

 Free energy of the ion-electron system (eV)
  ---------------------------------------------------
  alpha Z        PSCENC =        47.94900195
  Ewald energy   TEWEN  =     48114.18302124
  -Hartree energ DENC   =    -55117.27333637
  -exchange      EXHF   =         0.00000000
  -V(xc)+E(xc)   XCENC  =       385.47846359
  PAW double counting   =     79121.54574526   -78834.86970559
  entropy T*S    EENTRO =        -0.00000000
  eigenvalues    EBANDS =     -2668.06032749
  atomic energy  EATOM  =      8557.41276814
  ---------------------------------------------------
  free energy    TOTEN  =      -393.63436926 eV

  energy without entropy =     -393.63436926  energy(sigma->0) =     -393.63436926


--------------------------------------------------------------------------------------------------------




--------------------------------------- Iteration      1(  25)  ---------------------------------------


    POTLOK:  cpu time    4.2419: real time    4.2721
    SETDIJ:  cpu time    0.0531: real time    0.0533
    TRIAL :  cpu time    1.1634: real time    1.1743
    CORREC:  cpu time    4.7402: real time    4.7763
    CHARGE:  cpu time    0.1811: real time    0.1830
    --------------------------------------------
      LOOP:  cpu time   10.4517: real time   10.5364

 eigenvalue-minimisations  :     0
 total energy-change (2. order) :-0.6172049E-06  (-0.2852103E-06)
 number of electron     216.0000000 magnetization 
 augmentation part       -0.3556310 magnetization 

 Free energy of the ion-electron system (eV)
  ---------------------------------------------------
  alpha Z        PSCENC =        47.94900195
  Ewald energy   TEWEN  =     48114.18302124
  -Hartree energ DENC   =    -55117.27207789
  -exchange      EXHF   =         0.00000000
  -V(xc)+E(xc)   XCENC  =       385.47833143
  PAW double counting   =     79119.95807884   -78833.28197272
  entropy T*S    EENTRO =        -0.00000000
  eigenvalues    EBANDS =     -2668.06152087
  atomic energy  EATOM  =      8557.41276814
  ---------------------------------------------------
  free energy    TOTEN  =      -393.63436988 eV

  energy without entropy =     -393.63436988  energy(sigma->0) =     -393.63436988


--------------------------------------------------------------------------------------------------------




--------------------------------------- Iteration      1(  26)  ---------------------------------------


    POTLOK:  cpu time    4.2587: real time    4.2910
    SETDIJ:  cpu time    0.0531: real time    0.0539
    TRIAL :  cpu time    1.1648: real time    1.1763
    CORREC:  cpu time    4.7328: real time    4.7715
    CHARGE:  cpu time    0.1805: real time    0.1824
    --------------------------------------------
      LOOP:  cpu time   10.4357: real time   10.5650

 eigenvalue-minimisations  :     0
 total energy-change (2. order) :-0.2699671E-06  (-0.1566251E-06)
 number of electron     216.0000000 magnetization 
 augmentation part       -0.3556366 magnetization 

 Free energy of the ion-electron system (eV)
  ---------------------------------------------------
  alpha Z        PSCENC =        47.94900195
  Ewald energy   TEWEN  =     48114.18302124
  -Hartree energ DENC   =    -55117.28197173
  -exchange      EXHF   =         0.00000000
  -V(xc)+E(xc)   XCENC  =       385.47865486
  PAW double counting   =     79119.34821506   -78832.67217649
  entropy T*S    EENTRO =        -0.00000000
  eigenvalues    EBANDS =     -2668.05188318
  atomic energy  EATOM  =      8557.41276814
  ---------------------------------------------------
  free energy    TOTEN  =      -393.63437015 eV

  energy without entropy =     -393.63437015  energy(sigma->0) =     -393.63437015


--------------------------------------------------------------------------------------------------------




--------------------------------------- Iteration      1(  27)  ---------------------------------------


    POTLOK:  cpu time    4.2590: real time    4.2895
    SETDIJ:  cpu time    0.0524: real time    0.0526
    TRIAL :  cpu time    1.1650: real time    1.1758
    CORREC:  cpu time    4.7325: real time    4.7702
    CHARGE:  cpu time    0.1799: real time    0.1817
    --------------------------------------------
      LOOP:  cpu time   10.4196: real time   10.5160

 eigenvalue-minimisations  :     0
 total energy-change (2. order) :-0.1414592E-06  (-0.6303990E-07)
 number of electron     216.0000000 magnetization 
 augmentation part       -0.3556352 magnetization 

 Free energy of the ion-electron system (eV)
  ---------------------------------------------------
  alpha Z        PSCENC =        47.94900195
  Ewald energy   TEWEN  =     48114.18302124
  -Hartree energ DENC   =    -55117.28107754
  -exchange      EXHF   =         0.00000000
  -V(xc)+E(xc)   XCENC  =       385.47852240
  PAW double counting   =     79119.22308623   -78832.54702591
  entropy T*S    EENTRO =        -0.00000000
  eigenvalues    EBANDS =     -2668.05266681
  atomic energy  EATOM  =      8557.41276814
  ---------------------------------------------------
  free energy    TOTEN  =      -393.63437029 eV

  energy without entropy =     -393.63437029  energy(sigma->0) =     -393.63437029


--------------------------------------------------------------------------------------------------------




--------------------------------------- Iteration      1(  28)  ---------------------------------------


    POTLOK:  cpu time    4.2688: real time    4.2991
    SETDIJ:  cpu time    0.0529: real time    0.0531
    TRIAL :  cpu time    1.1646: real time    1.1752
    CORREC:  cpu time    4.7590: real time    4.7976
    EDDIAG:  cpu time    0.4357: real time    0.4409
    CHARGE:  cpu time    0.1786: real time    0.1804
[...]
      16 -86.7836      17 -86.7911      18 -86.7928      19 -86.7973      20 -86.7914
      21 -86.7751      22 -86.7810      23 -86.7917      24 -86.7905      25 -86.7868
      26 -86.7894      27 -86.7827      28 -86.8011      29 -86.7830      30 -86.7866
      31 -86.8106      32 -86.8000      33 -86.7967      34 -86.7891      35 -86.7861
      36 -86.7901      37 -86.7922      38 -86.7957      39 -86.7955      40 -86.7924
      41 -86.7937      42 -86.7977      43 -86.7904      44 -86.7981      45 -86.7855
      46 -86.7838      47 -86.7936      48 -86.7895      49 -86.7943      50 -86.7924
      51 -91.0024      52-120.7598      53-120.7644
 
 
 
 E-fermi :  -4.4387     XC(G=0):  -2.2149     alpha+bet : -1.6890

 Fermi energy:        -4.4387174505

 k-point     1 :       0.0000    0.0000    0.0000
  band No.  band energies     occupation 
      1     -27.8648      2.00000
      2     -26.9077      2.00000
      3     -22.4035      2.00000
      4     -21.4920      2.00000
      5     -21.4810      2.00000
      6     -21.4735      2.00000
      7     -21.4726      2.00000
      8     -21.4697      2.00000
      9     -21.4655      2.00000
     10     -19.6705      2.00000
     11     -19.6660      2.00000
     12     -19.6583      2.00000
     13     -19.6572      2.00000
     14     -19.6551      2.00000
     15     -19.6546      2.00000
     16     -18.7870      2.00000
     17     -18.7833      2.00000
     18     -18.7797      2.00000
     19     -18.7776      2.00000
     20     -18.7759      2.00000
     21     -18.7752      2.00000
     22     -16.6911      2.00000
     23     -16.6887      2.00000
     24     -16.6839      2.00000
     25     -16.6828      2.00000
     26     -16.6784      2.00000
     27     -16.6775      2.00000
     28     -15.6451      2.00000
     29     -15.6431      2.00000
     30     -15.6384      2.00000
     31     -15.6376      2.00000
     32     -15.6356      2.00000
     33     -15.6350      2.00000
     34     -14.3304      2.00000
     35     -14.3289      2.00000
     36     -14.3273      2.00000
     37     -14.3254      2.00000
     38     -14.3249      2.00000
     39     -14.3242      2.00000
     40     -12.7818      2.00000
     41     -12.0348      2.00000
     42     -12.0331      2.00000
     43     -12.0284      2.00000
     44     -12.0277      2.00000
     45     -12.0276      2.00000
     46     -12.0266      2.00000
     47     -11.8685      2.00000
     48     -11.8642      2.00000
     49     -11.8627      2.00000
     50     -11.8622      2.00000
     51     -11.8577      2.00000
     52     -11.8574      2.00000
     53     -11.6738      2.00000
     54     -11.6371      2.00000
     55     -11.4958      2.00000
     56     -10.5292      2.00000
     57     -10.5112      2.00000
     58     -10.5105      2.00000
     59     -10.5092      2.00000
     60     -10.5087      2.00000
     61     -10.5081      2.00000
     62     -10.5067      2.00000
     63      -9.4728      2.00000
     64      -9.4704      2.00000
     65      -9.4669      2.00000
     66      -9.4639      2.00000
     67      -9.4632      2.00000
     68      -9.3674      2.00000
     69      -9.3318      2.00000
     70      -9.3278      2.00000
     71      -9.3268      2.00000
     72      -9.3262      2.00000
     73      -9.3253      2.00000
     74      -9.3232      2.00000
     75      -9.2744      2.00000
     76      -9.2731      2.00000
     77      -9.2722      2.00000
     78      -9.2700      2.00000
     79      -9.2697      2.00000
     80      -9.2674      2.00000
     81      -8.0862      2.00000
     82      -8.0113      2.00000
     83      -7.7203      2.00000
     84      -7.7194      2.00000
     85      -7.7174      2.00000
     86      -7.7146      2.00000
     87      -7.7133      2.00000
     88      -7.7129      2.00000
     89      -7.3606      2.00000
     90      -7.3499      2.00000
     91      -7.3456      2.00000
     92      -7.3360      2.00000
     93      -7.3347      2.00000
     94      -7.2399      2.00000
     95      -6.4715      2.00000
     96      -6.4680      2.00000
     97      -6.4584      2.00000
     98      -6.4575      2.00000
     99      -6.4485      2.00000
    100      -6.4013      2.00000
    101      -6.2940      2.00000
    102      -6.2916      2.00000
    103      -4.5113      2.00000
    104      -4.5046      2.00000
    105      -4.4980      2.00000
    106      -4.4934      2.00000
    107      -4.4901      2.00000
    108      -4.4889      2.00000
    109      -1.7377      0.00000
    110      -1.7303      0.00000
    111      -1.7128      0.00000
    112      -1.7091      0.00000
    113      -1.7061      0.00000
    114      -1.6994      0.00000
    115      -0.4850      0.00000
    116       0.0890      0.00000
    117       0.1056      0.00000
    118       0.1187      0.00000
    119       0.1356      0.00000
    120       0.1399      0.00000
    121       0.1448      0.00000
    122       0.2653      0.00000
    123       0.4588      0.00000
    124       0.7387      0.00000
    125       0.7426      0.00000
    126       0.8551      0.00000
    127       0.9084      0.00000
    128       0.9101      0.00000
    129       0.9121      0.00000
    130       0.9877      0.00000
    131       1.2426      0.00000
    132       1.5526      0.00000
    133       1.7208      0.00000
    134       1.7543      0.00000
    135       1.8477      0.00000
    136       1.8701      0.00000


--------------------------------------------------------------------------------------------------------


 soft charge-density along one line, spin component           1
         0         1         2         3         4         5         6         7         8         9
 total charge-density along one line
 
 pseudopotential strength for first ion, spin component:           1
 12.620  21.239  -0.000  -0.000   0.000  -0.000   0.000   0.000
 21.239  35.744  -0.000   0.000   0.000  -0.000   0.000   0.000
 -0.000  -0.000  -3.327  -0.000   0.000  -5.962  -0.000   0.000
 -0.000   0.000  -0.000  -3.362  -0.000  -0.000  -6.025  -0.000
  0.000   0.000   0.000  -0.000  -3.327   0.000  -0.000  -5.962
 -0.000  -0.000  -5.962  -0.000   0.000 -10.664  -0.000   0.000
  0.000   0.000  -0.000  -6.025  -0.000  -0.000 -10.774  -0.000
  0.000   0.000   0.000  -0.000  -5.962   0.000  -0.000 -10.664
 total augmentation occupancy for first ion, spin component:           1
  6.240  -2.003  -0.000  -0.001   0.000   0.000   0.001  -0.000
 -2.003   0.690   0.000   0.000  -0.000  -0.000  -0.000   0.000
 -0.000   0.000   5.991  -0.007   0.000  -1.877   0.003  -0.000
 -0.001   0.000  -0.007   2.309  -0.000   0.003  -0.483   0.000
  0.000  -0.000   0.000  -0.000   5.991  -0.000   0.000  -1.877
  0.000  -0.000  -1.877   0.003  -0.000   0.606  -0.001   0.000
  0.001  -0.000   0.003  -0.483   0.000  -0.001   0.111   0.000
 -0.000   0.000  -0.000   0.000  -1.877   0.000   0.000   0.606


------------------------ aborting loop because EDIFF is reached ----------------------------------------


    FORLOC:  cpu time    0.0682: real time    0.0688
    FORNL :  cpu time    0.8527: real time    0.8576
    FORCOR:  cpu time    4.3308: real time    4.3654
    OFIELD:  cpu time    0.0015: real time    0.0015

 VOLUME and BASIS-vectors are now :
 -----------------------------------------------------------------------------
  energy-cutoff  :     1000.00
  volume of cell :     3288.85
      direct lattice vectors                 reciprocal lattice vectors
    12.325000000  0.000000000  0.000000000     0.081135903  0.046843835  0.000000000
    -6.162500000 10.673763102  0.000000000     0.000000000  0.093687670  0.000000000
     0.000000000  0.000000000 25.000000000     0.000000000  0.000000000  0.040000000

  length of vectors
    12.325000000 12.325000000 25.000000000     0.093687670  0.093687670  0.040000000


 FORCES acting on ions:
    Electron-Ion                     Ewald-Force                    Non-Local-Force
 -----------------------------------------------------------------------------------------------
   0.130E+02 0.114E+02 0.248E+02   -.130E+02 -.114E+02 -.248E+02   0.149E-01 -.946E-02 0.172E-01
   0.221E+02 0.110E+02 0.335E+02   -.221E+02 -.110E+02 -.335E+02   0.221E-01 -.177E-01 -.179E-02
   0.114E+02 0.286E+02 0.429E+02   -.114E+02 -.287E+02 -.429E+02   -.662E-03 0.583E-01 0.582E-01
   0.192E+02 0.283E+02 0.743E+02   -.193E+02 -.283E+02 -.744E+02   0.830E-01 0.313E-01 0.779E-01
   0.142E+02 0.339E+01 0.249E+02   -.142E+02 -.337E+01 -.249E+02   0.190E-02 -.208E-01 -.179E-02
   0.150E+02 -.249E+01 0.255E+02   -.150E+02 0.250E+01 -.255E+02   -.302E-01 -.770E-02 -.989E-02
   0.319E+02 0.135E+02 0.622E+02   -.320E+02 -.134E+02 -.622E+02   0.606E-01 -.973E-01 -.593E-01
   0.321E+02 -.106E+02 0.675E+02   -.320E+02 0.106E+02 -.674E+02   -.245E-01 -.360E-01 -.248E+00
   -.124E+02 0.269E+02 0.448E+02   0.124E+02 -.268E+02 -.447E+02   -.265E-01 -.156E-01 -.548E-01
   -.241E+02 0.208E+02 0.732E+02   0.242E+02 -.208E+02 -.731E+02   -.709E-01 0.322E-01 -.269E+00
   0.344E+01 -.298E+01 0.196E+02   -.342E+01 0.296E+01 -.196E+02   -.899E-02 0.778E-02 -.587E-02
   0.270E+01 -.218E+01 0.182E+02   -.270E+01 0.218E+01 -.182E+02   -.175E-01 0.766E-02 0.154E-02
   0.119E+02 -.301E+02 0.788E+02   -.121E+02 0.302E+02 -.787E+02   0.120E+00 0.934E-02 -.301E+00
   0.518E+01 -.292E+02 0.439E+02   -.522E+01 0.291E+02 -.438E+02   0.338E-01 0.440E-02 -.456E-01
   -.128E+02 0.805E+01 0.244E+02   0.127E+02 -.804E+01 -.244E+02   0.200E-01 -.113E-01 -.350E-02
   -.194E+02 0.538E+01 0.293E+02   0.193E+02 -.538E+01 -.292E+02   0.465E-02 0.704E-02 -.228E-01
   -.183E+01 -.754E+00 0.174E+02   0.184E+01 0.752E+00 -.174E+02   -.415E-02 -.249E-02 0.138E-02
   0.104E+01 0.681E+01 0.187E+02   -.104E+01 -.681E+01 -.187E+02   -.104E-01 0.443E-02 0.856E-02
   -.405E+01 -.230E+02 0.317E+02   0.402E+01 0.230E+02 -.318E+02   0.398E-01 -.272E-02 0.242E-01
   -.163E+01 -.106E+02 0.208E+02   0.163E+01 0.106E+02 -.208E+02   0.429E-02 -.570E-02 -.146E-02
   0.234E+02 -.101E+02 0.369E+02   -.233E+02 0.101E+02 -.369E+02   -.152E-01 -.169E-02 -.505E-01
   0.134E+02 -.116E+02 0.277E+02   -.133E+02 0.116E+02 -.277E+02   -.175E-01 0.260E-01 -.922E-02
   -.588E+01 0.143E+02 0.101E+03   0.602E+01 -.144E+02 -.101E+03   -.134E+00 0.879E-01 -.159E+00
   -.117E+02 -.228E+02 0.934E+02   0.116E+02 0.229E+02 -.935E+02   0.974E-01 -.978E-01 -.891E-01
   0.596E+01 -.268E+01 0.198E+02   -.593E+01 0.267E+01 -.198E+02   -.169E-01 0.358E-02 -.996E-02
   0.106E+01 0.536E+01 0.200E+02   -.105E+01 -.536E+01 -.200E+02   -.147E-01 0.617E-02 -.177E-02
   -.313E+02 0.334E+01 0.506E+02   0.313E+02 -.341E+01 -.505E+02   0.669E-02 0.412E-01 -.759E-01
   -.279E+02 -.122E+02 0.442E+02   0.280E+02 0.122E+02 -.442E+02   -.487E-01 0.466E-01 0.296E-01
   0.816E+01 -.168E+02 0.292E+02   -.816E+01 0.168E+02 -.291E+02   0.737E-02 0.163E-01 -.146E-01
   0.758E+00 -.598E+01 0.212E+02   -.775E+00 0.597E+01 -.212E+02   0.608E-02 0.139E-01 -.951E-02
   -.234E+02 -.254E+02 0.565E+02   0.234E+02 0.255E+02 -.566E+02   -.619E-01 -.410E-01 0.938E-01
   -.125E+02 -.227E+02 0.343E+02   0.125E+02 0.227E+02 -.344E+02   -.217E-02 -.363E-01 0.359E-01
   0.675E+00 0.281E+01 0.180E+02   -.679E+00 -.281E+01 -.180E+02   0.123E-01 -.102E-01 0.358E-02
   0.197E+01 0.287E+01 0.196E+02   -.197E+01 -.285E+01 -.195E+02   0.129E-02 -.936E-02 -.653E-02
   -.884E+01 0.104E+01 0.217E+02   0.883E+01 -.105E+01 -.217E+02   0.144E-01 0.332E-02 -.222E-02
   -.753E+01 -.298E+01 0.210E+02   0.754E+01 0.298E+01 -.210E+02   -.123E-01 0.106E-01 -.368E-02
   -.156E+02 -.815E+01 0.256E+02   0.156E+02 0.814E+01 -.256E+02   -.191E-01 0.464E-02 0.178E-02
   -.875E+01 -.713E+01 0.206E+02   0.876E+01 0.712E+01 -.207E+02   -.122E-01 0.398E-02 0.108E-01
   -.828E+01 -.109E+02 0.224E+02   0.829E+01 0.109E+02 -.224E+02   -.128E-01 -.114E-01 0.697E-02
   -.121E+01 -.253E+01 0.186E+02   0.120E+01 0.254E+01 -.186E+02   0.549E-03 -.233E-02 0.773E-02
   0.310E+01 0.736E+01 0.196E+02   -.310E+01 -.738E+01 -.196E+02   -.295E-02 0.121E-01 0.735E-02
   0.106E+02 0.165E+02 0.267E+02   -.106E+02 -.165E+02 -.267E+02   0.151E-01 0.179E-01 0.177E-01
   0.832E+00 0.133E+02 0.222E+02   -.821E+00 -.134E+02 -.222E+02   -.902E-02 0.109E-01 -.114E-02
   0.304E+00 0.264E+02 0.359E+02   -.264E+00 -.264E+02 -.359E+02   -.491E-01 0.123E-01 0.272E-01
   -.254E+01 0.508E+01 0.212E+02   0.254E+01 -.507E+01 -.212E+02   0.650E-03 -.105E-01 -.695E-02
   -.110E+02 0.141E+02 0.277E+02   0.110E+02 -.141E+02 -.277E+02   -.361E-02 -.527E-02 -.162E-01
   -.176E+01 -.500E+01 0.194E+02   0.175E+01 0.500E+01 -.194E+02   0.166E-01 -.659E-04 0.689E-03
   -.468E+01 0.193E+01 0.185E+02   0.466E+01 -.192E+01 -.185E+02   0.131E-01 -.232E-02 -.872E-02
   0.346E+00 -.310E+01 0.182E+02   -.344E+00 0.309E+01 -.182E+02   0.824E-02 -.305E-02 0.526E-02
   0.490E+01 0.361E+01 0.185E+02   -.490E+01 -.361E+01 -.185E+02   0.423E-02 0.578E-02 0.373E-02
   0.291E+00 -.170E+00 -.425E+03   -.279E+00 0.160E+00 0.426E+03   -.299E-01 0.146E-01 0.233E-01
   -.229E+03 0.155E+03 -.652E+03   0.279E+03 -.190E+03 0.655E+03   -.509E+02 0.347E+02 -.268E+01
   0.229E+03 -.155E+03 -.629E+03   -.279E+03 0.190E+03 0.626E+03   0.509E+02 -.348E+02 0.384E+01
 -----------------------------------------------------------------------------------------------
   0.542E-01 0.546E-02 -.135E+00   0.568E-13 -.142E-12 0.568E-12   -.542E-01 -.543E-02 0.133E+00
 
 
 POSITION                                       TOTAL-FORCE (eV/Angst)
 -----------------------------------------------------------------------------------
     11.98348      0.00342      0.01417         0.000476     -0.002889      0.000449
     -0.34154      1.42665      0.01100         0.010417      0.008668      0.002282
      2.12355      0.00315      0.01249         0.004529     -0.014254      0.010640
      2.12326      1.42653      0.00641        -0.005284      0.006731     -0.044976
     10.75099      2.13819      0.01213        -0.001054     -0.003331      0.004117
     -1.57382      3.56123      0.01110        -0.006337      0.007745      0.002917
      0.89078      2.13854      0.00548        -0.020043      0.010779     -0.040992
      0.89099      3.56147      0.00181        -0.015177      0.022884     -0.100704
      4.58864      0.00346      0.01135         0.011350      0.036591     -0.007683
      4.58894      1.42623      0.00646         0.018374     -0.017483     -0.135071
      9.51854      4.27281      0.01369         0.008316     -0.012418      0.000445
     -2.80632      5.69591      0.01434        -0.013055      0.007671      0.001199
      2.12300      4.27302      0.00000        -0.019844      0.044801     -0.171972
      2.12335      5.69594      0.00581        -0.007292     -0.045998     -0.006025
      7.05344      0.00333      0.01399         0.003811     -0.001248      0.004455
      7.05353      1.42635      0.01368        -0.007078      0.006772      0.002610
      8.28610      6.40752      0.01601         0.005033     -0.005255     -0.000053
     -4.03885      7.83070      0.01636        -0.006580      0.006715      0.000354
      3.35586      6.40753      0.01007         0.008794      0.004542      0.006351
      3.35599      7.83072      0.01320        -0.003005     -0.003775      0.000526
     -0.34146      4.27290      0.00723         0.029205     -0.018587     -0.000632
     -0.34138      5.69591      0.00946        -0.006815      0.005365      0.007115
      3.35624      2.13791      0.00222         0.011652     -0.016229     -0.263475
      3.35573      3.56155      0.00139         0.004978      0.024615     -0.184499
     -1.57395      6.40758      0.01311         0.014115     -0.002156     -0.000806
     -1.57385      7.83068      0.01438        -0.004987      0.004088      0.000397
      5.82093      2.13784      0.01033        -0.020627     -0.024495     -0.019689
      5.82114      3.56097      0.01156         0.002395     -0.000884      0.007397
      0.89092      6.40755      0.00907         0.001070      0.000567      0.006560
      0.89106      7.83068      0.01235        -0.011227     -0.003047      0.000416
      4.58871      4.27293      0.00850        -0.001312     -0.011958      0.002992
      4.58852      5.69606      0.01149        -0.000000      0.016748      0.005855
      9.51845      0.00337      0.01490         0.008213     -0.007797      0.000568
      9.51855      1.42644      0.01438        -0.004271      0.013303     -0.000298
      8.28593      2.13803      0.01453         0.002364     -0.007992      0.001840
      8.28613      3.56115      0.01464        -0.004476      0.002032      0.000726
      7.05356      4.27269      0.01457         0.000772     -0.002094      0.002222
      7.05362      5.69588      0.01553        -0.003210      0.001863      0.000030
      5.82112      6.40755      0.01489        -0.000684     -0.000875     -0.000378
      5.82102      7.83073      0.01579        -0.004253      0.004675     -0.000037
      7.05363      8.54227      0.01631         0.002134     -0.003253      0.001129
     -5.27149      9.96549      0.01495        -0.001944     -0.001548     -0.000810
     -2.80638      8.54234      0.01558         0.002198      0.001463      0.000355
     -2.80627      9.96553      0.01362        -0.008054     -0.002359      0.008063
     -0.34149      8.54239      0.01378         0.007005      0.000339      0.000997
     -0.34138      9.96550      0.01354        -0.007721      0.003357      0.004908
      2.12343      8.54232      0.01336         0.007546     -0.000265      0.000837
      2.12354      9.96544      0.01469        -0.009043      0.002707     -0.002003
      4.58846      8.54235      0.01505         0.010666     -0.007875      0.001420
      4.58853      9.96550      0.01517        -0.002353      0.006640      0.001106
      3.04930      2.68154      2.80616        -0.017739      0.003585      0.233448
      4.02070      2.02068      2.87058        -0.439115      0.326284      0.259886
      2.07767      3.34267      2.74670         0.477167     -0.363467      0.395493
 -----------------------------------------------------------------------------------
    total drift:                               -0.000011      0.000032     -0.002051


--------------------------------------------------------------------------------------------------------



  FREE ENERGIE OF THE ION-ELECTRON SYSTEM (eV)
  ---------------------------------------------------
  free  energy   TOTEN  =      -393.63437035 eV

  energy  without entropy=     -393.63437035  energy(sigma->0) =     -393.63437035
 


--------------------------------------------------------------------------------------------------------


    POTLOK:  cpu time    4.3383: real time    4.3712


--------------------------------------------------------------------------------------------------------


     LOOP+:  cpu time  295.1686: real time  298.1225
    4ORBIT:  cpu time    0.0000: real time    0.0000

 total amount of memory used by VASP MPI-rank0   100580. kBytes
=======================================================================

   base      :      30000. kBytes
   nonl-proj :       8229. kBytes
   fftplans  :      18352. kBytes
   grid      :      30208. kBytes
   one-center:          6. kBytes
   wavefun   :      13785. kBytes
 
  
  
 General timing and accounting informations for this job:
 ========================================================
  
                  Total CPU time used (sec):      340.970
                            User time (sec):      318.449
                          System time (sec):       22.521
                         Elapsed time (sec):      345.198
  
                   Maximum memory used (kb):      785308.
                   Average memory used (kb):          N/A
  
                          Minor page faults:       429649
                          Major page faults:           75
                 Voluntary context switches:         3903
