 vasp.6.2.1 16May21 (build Nov 06 2021 14:46:37) complex                        
  
 executed on             LinuxIFC date 2025.03.03  18:00:43
 running on  112 total cores
 distrk:  each k-point on  112 cores,    1 groups
 distr:  one band on NCORE=  28 cores,    4 groups


--------------------------------------------------------------------------------------------------------


 INCAR:
   NPAR = 4
   ALGO = Conjugate
   ISMEAR = 0
   SIGMA = 0.01
   PREC = Accurate
   EDIFF = 1E-7
   ENCUT = 1000
   ISIF = 0
   GGA = ML
   LUSE_VDW = .TRUE.
   ZAB_VDW = -1.8867
   AGGAC = 0.0000
   LASPH = .TRUE.
   SYMPREC = 1E-7
   LWAVE = .FALSE.
   LCHARGE = .FALSE.

 POTCAR:    PAW_PBE C_h 06Feb2004                 
 POTCAR:    PAW_PBE O_h 06Feb2004                 
 -----------------------------------------------------------------------------
|                                                                             |
|           W    W    AA    RRRRR   N    N  II  N    N   GGGG   !!!           |
|           W    W   A  A   R    R  NN   N  II  NN   N  G    G  !!!           |
|           W    W  A    A  R    R  N N  N  II  N N  N  G       !!!           |
|           W WW W  AAAAAA  RRRRR   N  N N  II  N  N N  G  GGG   !            |
|           WW  WW  A    A  R   R   N   NN  II  N   NN  G    G                |
|           W    W  A    A  R    R  N    N  II  N    N   GGGG   !!!           |
|                                                                             |
|     For optimal performance we recommend to set                             |
|       NCORE = 2 up to number-of-cores-per-socket                            |
|     NCORE specifies how many cores store one orbital (NPAR=cpu/NCORE).      |
|     This setting can greatly improve the performance of VASP for DFT.       |
|     The default, NCORE=1 might be grossly inefficient on modern             |
|     multi-core architectures or massively parallel machines. Do your        |
|     own testing! More info at https://www.vasp.at/wiki/index.php/NCORE      |
|     Unfortunately you need to use the default for GW and RPA                |
|     calculations (for HF NCORE is supported but not extensively tested      |
|     yet).                                                                   |
|                                                                             |
 -----------------------------------------------------------------------------

 -----------------------------------------------------------------------------
|                                                                             |
|               ----> ADVICE to this user running VASP <----                  |
|                                                                             |
|     You have switched on vdW-DFT.                                           |
|     This routine was written and supplied by Jiri Klimes. We recommend      |
|     that you carefully read and cite the following publications:            |
|       J. Klimes, D.R. Bowler, A. Michelides                                 |
|          J. Phys.: Cond Matt. 22 022201 (2010)                              |
|       J. Klimes, D.R. Bowler, A. Michelides                                 |
|          Phys. Rev. B. 83, 195131 (2011)                                    |
|     and references therein.                                                 |
|                                                                             |
 -----------------------------------------------------------------------------

 POTCAR:    PAW_PBE C_h 06Feb2004                 
   VRHFIN =C: s2p2                                                                                  
   LEXCH  = PE                                                                                      
   EATOM  =   147.1560 eV,   10.8157 Ry                                                             
                                                                                                    
   TITEL  = PAW_PBE C_h 06Feb2004                                                                   
   LULTRA =        F    use ultrasoft PP ?                                                          
   IUNSCR =        1    unscreen: 0-lin 1-nonlin 2-no                                               
   RPACOR =    0.800    partial core radius                                                         
   POMASS =   12.011; ZVAL   =    4.000    mass and valenz                                          
   RCORE  =    1.100    outmost cutoff radius                                                       
   RWIGS  =    1.630; RWIGS  =    0.863    wigner-seitz radius (au A)                               
   ENMAX  =  700.000; ENMIN  =  500.000 eV                                                          
   ICORE  =        2    local potential                                                             
   LCOR   =        T    correct aug charges                                                         
   LPAW   =        T    paw PP                                                                      
   EAUG   =  946.768                                                                                
   DEXC   =    0.000                                                                                
   RMAX   =    1.128    core radius for proj-oper                                                   
   RAUG   =    1.300    factor for augmentation sphere                                              
   RDEP   =    1.162    radius for radial grids                                                     
   RDEPT  =    1.088    core radius for aug-charge                                                  
                                                                                                    
   Atomic configuration                                                                             
    4 entries                                                                                       
     n  l   j            E        occ.                                                              
     1  0  0.50      -273.3789   2.0000                                                             
     2  0  0.50       -13.7508   2.0000                                                             
     2  1  0.50        -5.2854   2.0000                                                             
     3  2  1.50        -5.4423   0.0000                                                             
   Description                                                                                      
     l       E           TYP  RCUT    TYP  RCUT                                                     
     0    -13.7508458     23  1.100                                                                 
     0     -8.2022199     23  1.100                                                                 
     1     -5.2854383     23  1.100                                                                 
     1      1.1560700     23  1.100                                                                 
     2     -5.4423304      7  1.100                                                                 
  local pseudopotential read in
  partial core-charges read in
  partial kinetic energy density read in
  atomic valenz-charges read in
  non local Contribution for L=           0  read in
    real space projection operators read in
  non local Contribution for L=           0  read in
    real space projection operators read in
  non local Contribution for L=           1  read in
    real space projection operators read in
  non local Contribution for L=           1  read in
    real space projection operators read in
    PAW grid and wavefunctions read in
 
   number of l-projection  operators is LMAX  =           4
   number of lm-projection operators is LMMAX =           8
 
 POTCAR:    PAW_PBE O_h 06Feb2004                 
   VRHFIN =O: s2p4                                                                                  
   LEXCH  = PE                                                                                      
   EATOM  =   432.3788 eV,   31.7789 Ry                                                             
                                                                                                    
   TITEL  = PAW_PBE O_h 06Feb2004                                                                   
   LULTRA =        F    use ultrasoft PP ?                                                          
   IUNSCR =        1    unscreen: 0-lin 1-nonlin 2-no                                               
   RPACOR =    0.800    partial core radius                                                         
   POMASS =   16.000; ZVAL   =    6.000    mass and valenz                                          
   RCORE  =    1.100    outmost cutoff radius                                                       
   RWIGS  =    1.400; RWIGS  =    0.741    wigner-seitz radius (au A)                               
   ENMAX  =  700.000; ENMIN  =  500.000 eV                                                          
   ICORE  =        2    local potential                                                             
   LCOR   =        T    correct aug charges                                                         
   LPAW   =        T    paw PP                                                                      
   EAUG   =  888.804                                                                                
   DEXC   =    0.000                                                                                
   RMAX   =    1.128    core radius for proj-oper                                                   
   RAUG   =    1.300    factor for augmentation sphere                                              
   RDEP   =    1.125    radius for radial grids                                                     
   RDEPT  =    1.088    core radius for aug-charge                                                  
                                                                                                    
   Atomic configuration                                                                             
    4 entries                                                                                       
     n  l   j            E        occ.                                                              
     1  0  0.50      -514.6923   2.0000                                                             
     2  0  0.50       -23.9615   2.0000                                                             
     2  1  0.50        -9.0305   4.0000                                                             
     3  2  1.50        -9.5241   0.0000                                                             
   Description                                                                                      
     l       E           TYP  RCUT    TYP  RCUT                                                     
     0    -23.9615319     23  1.100                                                                 
     0    -25.3221145     23  1.100                                                                 
     1     -9.0304911     23  1.100                                                                 
     1     -5.4802209     23  1.100                                                                 
     2     -9.5240782      7  1.100                                                                 
  local pseudopotential read in
  partial core-charges read in
  partial kinetic energy density read in
  atomic valenz-charges read in
  non local Contribution for L=           0  read in
    real space projection operators read in
  non local Contribution for L=           0  read in
    real space projection operators read in
  non local Contribution for L=           1  read in
    real space projection operators read in
  non local Contribution for L=           1  read in
    real space projection operators read in
    PAW grid and wavefunctions read in
 
   number of l-projection  operators is LMAX  =           4
   number of lm-projection operators is LMMAX =           8
 
 -----------------------------------------------------------------------------
|                                                                             |
|               ----> ADVICE to this user running VASP <----                  |
|                                                                             |
|     You have a (more or less) 'large supercell' and for larger cells it     |
|     might be more efficient to use real-space projection operators.         |
|     Therefore, try LREAL= Auto in the INCAR file.                           |
|     Mind: For very accurate calculation, you might also keep the            |
|     reciprocal projection scheme (i.e. LREAL=.FALSE.).                      |
|                                                                             |
 -----------------------------------------------------------------------------

 -----------------------------------------------------------------------------
|                                                                             |
|               ----> ADVICE to this user running VASP <----                  |
|                                                                             |
|     You enforced a specific xc type in the INCAR file but a different       |
|     type was found in the POTCAR file.                                      |
|     I HOPE YOU KNOW WHAT YOU ARE DOING!                                     |
|                                                                             |
 -----------------------------------------------------------------------------

  PAW_PBE C_h 06Feb2004                 :
 energy of atom  1       EATOM= -147.1560
 kinetic energy error for atom=    0.0031 (will be added to EATOM!!)
  PAW_PBE O_h 06Feb2004                 :
 energy of atom  2       EATOM= -432.3788
 kinetic energy error for atom=    0.0171 (will be added to EATOM!!)
 
 
 POSCAR:  C  O
  positions in cartesian coordinates
  No initial velocities read in
 exchange correlation table for  LEXCH =       44
   RHO(1)=    0.500       N(1)  =     2000
   RHO(2)=  100.500       N(2)  =     4000
 


--------------------------------------------------------------------------------------------------------


 ion  position               nearest neighbor table
   1  0.972  0.000  0.001-  50 1.42   2 1.42  42 1.42
   2  0.039  0.134  0.001-   5 1.42   7 1.42   1 1.42
   3  0.172  0.000  0.001-  42 1.42  44 1.42   4 1.42
   4  0.239  0.134  0.000-   7 1.42   3 1.42  23 1.42
   5  0.972  0.200  0.001-   6 1.42   2 1.42  34 1.42
   6  0.039  0.334  0.001-   5 1.42  21 1.42  11 1.42
   7  0.172  0.200  0.000-   8 1.42   2 1.42   4 1.42
   8  0.239  0.334  0.000-  13 1.42   7 1.42  21 1.42
   9  0.372  0.000  0.001-  10 1.42  44 1.42  46 1.42
  10  0.439  0.134  0.000-  27 1.42   9 1.42  23 1.42
  11  0.972  0.400  0.001-  12 1.42  36 1.42   6 1.42
  12  0.039  0.534  0.001-  25 1.42  11 1.42  17 1.42
  13  0.372  0.400  0.000-   8 1.42  14 1.42  24 1.42
  14  0.439  0.534  0.000-  13 1.42  29 1.42  19 1.42
  15  0.572  0.000  0.001-  46 1.42  16 1.42  48 1.42
  16  0.639  0.134  0.001-  15 1.42  35 1.42  27 1.42
  17  0.972  0.600  0.001-  38 1.42  18 1.42  12 1.42
  18  0.039  0.734  0.001-  43 1.42  41 1.42  17 1.42
  19  0.572  0.600  0.001-  14 1.42  20 1.42  32 1.42
  20  0.639  0.734  0.001-  49 1.42  19 1.42  47 1.42
  21  0.172  0.400  0.000-  22 1.42   8 1.42   6 1.42
  22  0.239  0.534  0.000-  21 1.42  29 1.42  25 1.42
  23  0.372  0.200  0.000-  10 1.42   4 1.42  24 1.42
  24  0.439  0.334  0.000-  13 1.42  31 1.42  23 1.42
  25  0.172  0.600  0.001-  26 1.42  12 1.42  22 1.42
  26  0.239  0.734  0.001-  25 1.42  45 1.42  43 1.42
  27  0.572  0.200  0.001-  10 1.42  28 1.42  16 1.42
  28  0.639  0.334  0.001-  27 1.42  37 1.42  31 1.42
  29  0.372  0.600  0.000-  22 1.42  14 1.42  30 1.42
  30  0.439  0.734  0.001-  47 1.42  29 1.42  45 1.42
  31  0.572  0.400  0.000-  32 1.42  28 1.42  24 1.42
  32  0.639  0.534  0.001-  31 1.42  39 1.42  19 1.42
  33  0.772  0.000  0.001-  34 1.42  48 1.42  50 1.42
  34  0.839  0.134  0.001-  33 1.42   5 1.42  35 1.42
  35  0.772  0.200  0.001-  36 1.42  16 1.42  34 1.42
  36  0.839  0.334  0.001-  35 1.42  11 1.42  37 1.42
  37  0.772  0.400  0.001-  28 1.42  38 1.42  36 1.42
  38  0.839  0.534  0.001-  17 1.42  37 1.42  39 1.42
  39  0.772  0.600  0.001-  40 1.42  38 1.42  32 1.42
  40  0.839  0.734  0.001-  39 1.42  49 1.42  41 1.42
  41  0.972  0.800  0.001-  18 1.42  42 1.42  40 1.42
  42  0.039  0.934  0.001-   3 1.42  41 1.42   1 1.42
  43  0.172  0.800  0.001-  18 1.42  44 1.42  26 1.42
  44  0.239  0.934  0.001-   9 1.42  43 1.42   3 1.42
  45  0.372  0.800  0.001-  26 1.42  46 1.42  30 1.42
  46  0.439  0.934  0.001-  15 1.42  45 1.42   9 1.42
  47  0.572  0.800  0.001-  30 1.42  48 1.42  20 1.42
  48  0.639  0.934  0.001-  47 1.42  33 1.42  15 1.42
  49  0.772  0.800  0.001-  50 1.42  20 1.42  40 1.42
  50  0.839  0.934  0.001-  49 1.42   1 1.42  33 1.42
  51  0.373  0.251  0.149-  52 1.18  53 1.18
  52  0.421  0.189  0.152-  51 1.18
  53  0.325  0.313  0.146-  51 1.18
 
  LATTYP: Found a hexagonal cell.
 ALAT       =    12.3250000000
 C/A-ratio  =     1.6227180527
  
  Lattice vectors:
  
 A1 = (  12.3250000000,   0.0000000000,   0.0000000000)
 A2 = (  -6.1625000000,  10.6737631016,   0.0000000000)
 A3 = (   0.0000000000,   0.0000000000,  20.0000000000)


Analysis of symmetry for initial positions (statically):
=====================================================================
 Subroutine PRICEL returns:
 Original cell was already a primitive cell.
 

 Routine SETGRP: Setting up the symmetry group for a 
 hexagonal supercell.


 Subroutine GETGRP returns: Found  1 space group operations
 (whereof  1 operations were pure point group operations)
 out of a pool of 24 trial point group operations.


The static configuration has the point symmetry C_1 .


Analysis of symmetry for dynamics (positions and initial velocities):
=====================================================================
 Subroutine PRICEL returns:
 Original cell was already a primitive cell.
 

 Routine SETGRP: Setting up the symmetry group for a 
 hexagonal supercell.


 Subroutine GETGRP returns: Found  1 space group operations
 (whereof  1 operations were pure point group operations)
 out of a pool of 24 trial point group operations.


The dynamic configuration has the point symmetry C_1 .


 Subroutine INISYM returns: Found  1 space group operations
 (whereof  1 operations are pure point group operations),
 and found     1 'primitive' translations


----------------------------------------------------------------------------------------

                                     Primitive cell                                     

  volume of cell :    2631.0826

  direct lattice vectors                    reciprocal lattice vectors
    12.325000000  0.000000000  0.000000000     0.081135903  0.046843835  0.000000000
    -6.162500000 10.673763102  0.000000000     0.000000000  0.093687670  0.000000000
     0.000000000  0.000000000 20.000000000     0.000000000  0.000000000  0.050000000

  length of vectors
    12.325000000 12.325000000 20.000000000     0.093687670  0.093687670  0.050000000

  position of ions in fractional coordinates (direct lattice)
     0.972450841  0.000320818  0.000708389
     0.039118382  0.133659505  0.000550216
     0.172443627  0.000295449  0.000624535
     0.239096278  0.133647917  0.000320585
     0.972452058  0.200322012  0.000606523
     0.039128360  0.333643771  0.000555187
     0.172451764  0.200354552  0.000273959
     0.239124359  0.333665720  0.000090325
     0.372465565  0.000324403  0.000567391
     0.439137473  0.133619939  0.000322923
     0.972449824  0.400309362  0.000684513
     0.039124981  0.533636789  0.000716763
     0.372416176  0.400329481  0.000000000
     0.439099602  0.533638981  0.000290518
     0.572443676  0.000312125  0.000699475
     0.639110207  0.133631751  0.000684093
     0.972452703  0.600305653  0.000800361
     0.039124495  0.733640359  0.000818141
     0.572433471  0.600306242  0.000503618
     0.639111888  0.733641879  0.000659881
     0.172454630  0.400318228  0.000361306
     0.239120185  0.533636548  0.000473136
     0.372459750  0.200295993  0.000111246
     0.439107096  0.333673419  0.000069702
     0.172452155  0.600311506  0.000655425
     0.239123371  0.733638574  0.000718912
     0.572431082  0.200289171  0.000516621
     0.639112773  0.333618630  0.000577970
     0.372439808  0.600308022  0.000453556
     0.439116090  0.733637858  0.000617737
     0.572469358  0.400320504  0.000424897
     0.639119408  0.533650873  0.000574513
     0.772445723  0.000315427  0.000745201
     0.839116277  0.133640203  0.000719132
     0.772440513  0.200307432  0.000726291
     0.839120241  0.333635728  0.000731834
     0.772446320  0.400298367  0.000728722
     0.839118980  0.533633964  0.000776376
     0.772456143  0.600308173  0.000744639
     0.839115033  0.733643180  0.000789390
     0.972455313  0.800305582  0.000815291
     0.039114714  0.933643289  0.000747563
     0.172457971  0.800312211  0.000779216
     0.239134551  0.933647193  0.000681063
     0.372451396  0.800316674  0.000689249
     0.439124489  0.933644769  0.000676788
     0.572441101  0.800310054  0.000668168
     0.639115067  0.933638985  0.000734556
     0.772445098  0.800313187  0.000752577
     0.839116614  0.933644338  0.000758538
     0.373021009  0.251226878  0.148650889
     0.420879805  0.189313152  0.151871982
     0.325156981  0.313167186  0.145678146

  ion indices of the primitive-cell ions
   primitive index   ion index
                 1           1
                 2           2
                 3           3
                 4           4
                 5           5
                 6           6
                 7           7
                 8           8
                 9           9
                10          10
                11          11
                12          12
                13          13
                14          14
                15          15
                16          16
                17          17
                18          18
                19          19
                20          20
                21          21
                22          22
                23          23
                24          24
                25          25
                26          26
                27          27
                28          28
                29          29
                30          30
                31          31
                32          32
                33          33
                34          34
                35          35
                36          36
                37          37
                38          38
                39          39
                40          40
                41          41
                42          42
                43          43
                44          44
                45          45
                46          46
                47          47
                48          48
                49          49
                50          50
                51          51
                52          52
                53          53

----------------------------------------------------------------------------------------

 
 
 KPOINTS: auto                                    

Automatic generation of k-mesh.
 Grid dimensions read from file:
 generate k-points for:    1    1    1

 Generating k-lattice:

  Cartesian coordinates                     Fractional coordinates (reciprocal lattice)
     0.081135903  0.046843835  0.000000000     1.000000000 -0.000000000  0.000000000
     0.000000000  0.093687670  0.000000000     0.000000000  1.000000000  0.000000000
     0.000000000  0.000000000  0.050000000     0.000000000  0.000000000  1.000000000

  Length of vectors
     0.093687670  0.093687670  0.050000000

  Shift w.r.t. Gamma in fractional coordinates (k-lattice)
     0.000000000  0.000000000  0.000000000

 
 Subroutine IBZKPT returns following result:
 ===========================================
 
 Found      1 irreducible k-points:
 
 Following reciprocal coordinates:
            Coordinates               Weight
  0.000000  0.000000  0.000000      1.000000
 
 Following cartesian coordinates:
            Coordinates               Weight
  0.000000  0.000000  0.000000      1.000000
 


--------------------------------------------------------------------------------------------------------




 Dimension of arrays:
   k-points           NKPTS =      1   k-points in BZ     NKDIM =      1   number of bands    NBANDS=    136
   number of dos      NEDOS =    301   number of ions     NIONS =     53
   non local maximal  LDIM  =      4   non local SUM 2l+1 LMDIM =      8
   total plane-waves  NPLWV = ******
   max r-space proj   IRMAX =      1   max aug-charges    IRDMAX=   9736
   dimension x,y,z NGX =   128 NGY =  128 NGZ =  210
   dimension x,y,z NGXF=   256 NGYF=  256 NGZF=  420
   support grid    NGXF=   256 NGYF=  256 NGZF=  420
   ions per type =              51   2
   NGX,Y,Z   is equivalent  to a cutoff of  17.27, 17.27, 17.46 a.u.
   NGXF,Y,Z  is equivalent  to a cutoff of  34.53, 34.53, 34.91 a.u.

 SYSTEM =  unknown system                          
 POSCAR =   C  O                                   

 Startparameter for this run:
   NWRITE =      2    write-flag & timer
   PREC   = accura    normal or accurate (medium, high low for compatibility)
   ISTART =      0    job   : 0-new  1-cont  2-samecut
   ICHARG =      2    charge: 1-file 2-atom 10-const
   ISPIN  =      1    spin polarized calculation?
   LNONCOLLINEAR =      F non collinear calculations
   LSORBIT =      F    spin-orbit coupling
   INIWAV =      1    electr: 0-lowe 1-rand  2-diag
   LASPH  =      T    aspherical Exc in radial PAW
 Electronic Relaxation 1
   ENCUT  = 1000.0 eV  73.50 Ry    8.57 a.u.  31.78 31.78 51.57*2*pi/ulx,y,z
   ENINI  = 1000.0     initial cutoff
   ENAUG  =  946.8 eV  augmentation charge cutoff
   NELM   =     60;   NELMIN=  2; NELMDL= -5     # of ELM steps 
   EDIFF  = 0.1E-06   stopping-criterion for ELM
   LREAL  =      F    real-space projection
   NLSPLINE    = F    spline interpolate recip. space projectors
   LCOMPAT=      F    compatible to vasp.4.4
   GGA_COMPAT  = T    GGA compatible to vasp.4.4-vasp.4.6
   LMAXPAW     = -100 max onsite density
   LMAXMIX     =    2 max onsite mixed and CHGCAR
   VOSKOWN=      0    Vosko Wilk Nusair interpolation
   ROPT   =    0.00000   0.00000
 Ionic relaxation
   EDIFFG = 0.1E-05   stopping-criterion for IOM
   NSW    =      0    number of steps for IOM
   NBLOCK =      1;   KBLOCK =      1    inner block; outer block 
   IBRION =     -1    ionic relax: 0-MD 1-quasi-New 2-CG
   NFREE  =      0    steps in history (QN), initial steepest desc. (CG)
   ISIF   =      0    stress and relaxation
   IWAVPR =     10    prediction:  0-non 1-charg 2-wave 3-comb
   ISYM   =      2    0-nonsym 1-usesym 2-fastsym
   LCORR  =      T    Harris-Foulkes like correction to forces

   POTIM  = 0.5000    time-step for ionic-motion
   TEIN   =    0.0    initial temperature
   TEBEG  =    0.0;   TEEND  =   0.0 temperature during run
   SMASS  =  -3.00    Nose mass-parameter (am)
   estimated Nose-frequenzy (Omega)   =  0.10E-29 period in steps = 0.13E+47 mass=  -0.347E-26a.u.
   SCALEE = 1.0000    scale energy and forces
   NPACO  =    256;   APACO  = 16.0  distance and # of slots for P.C.
   PSTRESS=    0.0 pullay stress

  Mass of Ions in am
   POMASS =  12.01 16.00
  Ionic Valenz
   ZVAL   =   4.00  6.00
  Atomic Wigner-Seitz radii
   RWIGS  =  -1.00 -1.00
  virtual crystal weights 
   VCA    =   1.00  1.00
   NELECT =     216.0000    total number of electrons
   NUPDOWN=      -1.0000    fix difference up-down

 DOS related values:
   EMIN   =  10.00;   EMAX   =-10.00  energy-range for DOS
   EFERMI =   0.00
   ISMEAR =     0;   SIGMA  =   0.01  broadening in eV -4-tet -1-fermi 0-gaus

 Electronic relaxation 2 (details)
   IALGO  =     58    algorithm
   LDIAG  =      T    sub-space diagonalisation (order eigenvalues)
   LSUBROT=      F    optimize rotation matrix (better conditioning)
   TURBO    =      0    0=normal 1=particle mesh
   IRESTART =      0    0=no restart 2=restart with 2 vectors
   NREBOOT  =      0    no. of reboots
   NMIN     =      0    reboot dimension
   EREF     =   0.00    reference energy to select bands
   IMIX   =      4    mixing-type and parameters
     AMIX     =   0.40;   BMIX     =  1.00
     AMIX_MAG =   1.60;   BMIX_MAG =  1.00
     AMIN     =   0.10
     WC   =   100.;   INIMIX=   1;  MIXPRE=   1;  MAXMIX= -45

 Intra band minimization:
   WEIMIN = 0.0000     energy-eigenvalue tresh-hold
   EBREAK =  0.18E-09  absolut break condition
   DEPER  =   0.30     relativ break condition  

   TIME   =   0.40     timestep for ELM

  volume/ion in A,a.u.               =      49.64       335.01
  Fermi-wavevector in a.u.,A,eV,Ry     =   0.711510  1.344560  6.887909  0.506247
  Thomas-Fermi vector in A             =   1.798641
 
 Write flags
   LWAVE        =      F    write WAVECAR
   LDOWNSAMPLE  =      F    k-point downsampling of WAVECAR
   LCHARG       =      T    write CHGCAR
   LVTOT        =      F    write LOCPOT, total local potential
   LVHAR        =      F    write LOCPOT, Hartree potential only
   LELF         =      F    write electronic localiz. function (ELF)
   LORBIT       =      0    0 simple, 1 ext, 2 COOP (PROOUT), +10 PAW based schemes


 Dipole corrections
   LMONO  =      F    monopole corrections only (constant potential shift)
   LDIPOL =      F    correct potential (dipole corrections)
   IDIPOL =      0    1-x, 2-y, 3-z, 4-all directions 
   EPSILON=  1.0000000 bulk dielectric constant

 Exchange correlation treatment:
   GGA     =    ML    GGA type
   LEXCH   =    44    internal setting for exchange type
   VOSKOWN=      0    Vosko Wilk Nusair interpolation
   LHFCALC =     F    Hartree Fock is set to
   LHFONE  =     F    Hartree Fock one center treatment
   AEXX    =    0.0000 exact exchange contribution

 vdW DFT:
   LUSE_VDW   =     T    switch on vdW DFT
   Zab_VDW    =******    correlation parameter
   PARAM1     =0.1234
   PARAM2     =1.0000
   PARAM3     =0.0000
   -- rVV10 --
   BPARAM     = 6.3000
   CPARAM     = 0.0093

 Linear response parameters
   LEPSILON=     F    determine dielectric tensor
   LRPA    =     F    only Hartree local field effects (RPA)
   LNABLA  =     F    use nabla operator in PAW spheres
   LVEL    =     F    velocity operator in full k-point grid
   LINTERFAST=   F  fast interpolation
   KINTER  =     0    interpolate to denser k-point grid
   CSHIFT  =0.1000    complex shift for real part using Kramers Kronig
   OMEGAMAX=  -1.0    maximum frequency
   DEG_THRESHOLD= 0.2000000E-02 threshold for treating states as degnerate
   RTIME   =   -0.100 relaxation time in fs
  (WPLASMAI=    0.000 imaginary part of plasma frequency in eV, 0.658/RTIME)
   DFIELD  = 0.0000000 0.0000000 0.0000000 field for delta impulse in time
 
 Orbital magnetization related:
   ORBITALMAG=     F  switch on orbital magnetization
   LCHIMAG   =     F  perturbation theory with respect to B field
   DQ        =  0.001000  dq finite difference perturbation B field
   LLRAUG    =     F  two centre corrections for induced B field



--------------------------------------------------------------------------------------------------------


 Static calculation
 charge density and potential will be updated during run
 non-spin polarized calculation
 Conjugate gradient for all bands (Freysoldt, et al. PRB 79, 241103 (2009))
 preconditioned conjugated gradient                                        
 perform sub-space diagonalisation
    before iterative eigenvector-optimisation
 modified Broyden-mixing scheme, WC =      100.0
 initial mixing is a Kerker type mixing with AMIX =  0.4000 and BMIX =      1.0000
 Hartree-type preconditioning will be used
 using additional bands           28
 reciprocal scheme for non local part
 use partial core corrections
 no Harris-corrections to forces 
 use gradient corrections 
 use of overlap-Matrix (Vanderbilt PP)
 Gauss-broadening in eV      SIGMA  =   0.01


--------------------------------------------------------------------------------------------------------


  energy-cutoff  :     1000.00
  volume of cell :     2631.08
      direct lattice vectors                 reciprocal lattice vectors
    12.325000000  0.000000000  0.000000000     0.081135903  0.046843835  0.000000000
    -6.162500000 10.673763102  0.000000000     0.000000000  0.093687670  0.000000000
     0.000000000  0.000000000 20.000000000     0.000000000  0.000000000  0.050000000

  length of vectors
    12.325000000 12.325000000 20.000000000     0.093687670  0.093687670  0.050000000


 
 k-points in units of 2pi/SCALE and weight: auto                                    
   0.00000000  0.00000000  0.00000000       1.000
 
 k-points in reciprocal lattice and weights: auto                                    
   0.00000000  0.00000000  0.00000000       1.000
 
 position of ions in fractional coordinates (direct lattice) 
   0.97245084  0.00032082  0.00070839
   0.03911838  0.13365950  0.00055022
   0.17244363  0.00029545  0.00062454
   0.23909628  0.13364792  0.00032058
   0.97245206  0.20032201  0.00060652
   0.03912836  0.33364377  0.00055519
   0.17245176  0.20035455  0.00027396
   0.23912436  0.33366572  0.00009033
   0.37246557  0.00032440  0.00056739
   0.43913747  0.13361994  0.00032292
   0.97244982  0.40030936  0.00068451
   0.03912498  0.53363679  0.00071676
   0.37241618  0.40032948  0.00000000
   0.43909960  0.53363898  0.00029052
   0.57244368  0.00031213  0.00069947
   0.63911021  0.13363175  0.00068409
   0.97245270  0.60030565  0.00080036
   0.03912449  0.73364036  0.00081814
   0.57243347  0.60030624  0.00050362
   0.63911189  0.73364188  0.00065988
   0.17245463  0.40031823  0.00036131
   0.23912018  0.53363655  0.00047314
   0.37245975  0.20029599  0.00011125
   0.43910710  0.33367342  0.00006970
   0.17245216  0.60031151  0.00065542
   0.23912337  0.73363857  0.00071891
   0.57243108  0.20028917  0.00051662
   0.63911277  0.33361863  0.00057797
   0.37243981  0.60030802  0.00045356
   0.43911609  0.73363786  0.00061774
   0.57246936  0.40032050  0.00042490
   0.63911941  0.53365087  0.00057451
   0.77244572  0.00031543  0.00074520
   0.83911628  0.13364020  0.00071913
   0.77244051  0.20030743  0.00072629
   0.83912024  0.33363573  0.00073183
   0.77244632  0.40029837  0.00072872
   0.83911898  0.53363396  0.00077638
   0.77245614  0.60030817  0.00074464
   0.83911503  0.73364318  0.00078939
   0.97245531  0.80030558  0.00081529
   0.03911471  0.93364329  0.00074756
   0.17245797  0.80031221  0.00077922
   0.23913455  0.93364719  0.00068106
   0.37245140  0.80031667  0.00068925
   0.43912449  0.93364477  0.00067679
   0.57244110  0.80031005  0.00066817
   0.63911507  0.93363899  0.00073456
   0.77244510  0.80031319  0.00075258
   0.83911661  0.93364434  0.00075854
   0.37302101  0.25122688  0.14865089
   0.42087980  0.18931315  0.15187198
   0.32515698  0.31316719  0.14567815
 
 position of ions in cartesian coordinates  (Angst):
  11.98347958  0.00342433  0.01416777
  -0.34154264  1.42664989  0.01100432
   2.12354700  0.00315355  0.01249070
   2.12325634  1.42652621  0.00641170
  10.75098721  2.13818970  0.01213047
  -1.57382270  3.56123457  0.01110375
   0.89078307  2.13853702  0.00547917
   0.89099273  3.56146885  0.00180651
   4.58863896  0.00346260  0.01134782
   4.58893648  1.42622757  0.00645846
   9.51853763  4.27280730  0.01369027
  -2.80632132  5.69591267  0.01433526
   2.12299894  4.27302204  0.00000000
   2.12335237  5.69593607  0.00581036
   7.05344483  0.00333155  0.01398950
   7.05352764  1.42635365  0.01368187
   8.28609598  6.40752033  0.01600723
  -4.03884931  7.83070339  0.01636283
   3.35585531  6.40752662  0.01007237
   3.35598594  7.83071962  0.01319763
  -0.34145776  4.27290193  0.00722612
  -0.34137895  5.69591010  0.00946273
   3.35624236  2.13791198  0.00222492
   3.35573251  3.56155103  0.00139405
  -1.57394684  6.40758280  0.01310850
  -1.57385216  7.83068434  0.01437823
   5.82093107  2.13783916  0.01033241
   5.82114012  3.56096622  0.01155939
   0.89092245  6.40754561  0.00907111
   0.89106251  7.83067670  0.01235474
   4.58870974  4.27292622  0.00849795
   4.58852320  5.69606300  0.01149026
   9.51844972  0.00336679  0.01490402
   9.51855036  1.42644387  0.01438264
   8.28593477  2.13803408  0.01452582
   8.28612680  3.56114872  0.01463668
   7.05356221  4.27268994  0.01457444
   7.05362213  5.69588251  0.01552751
   5.82112285  6.40754723  0.01489279
   5.82101669  7.83073350  0.01578780
   7.05362858  8.54227219  0.01630582
  -5.27148792  9.96548729  0.01495127
  -2.80637951  8.54234295  0.01558431
  -2.80626749  9.96552896  0.01362126
  -0.34148805  8.54239058  0.01378498
  -0.34137657  9.96550309  0.01353576
   2.12342586  8.54231992  0.01336337
   2.12354296  9.96544135  0.01469111
   4.58845581  8.54235337  0.01505154
   4.58852904  9.96549848  0.01517076
   3.04929830  2.68153618  2.97301779
   4.02070129  2.02068374  3.03743965
   2.07766701  3.34267235  2.91356292
 


--------------------------------------------------------------------------------------------------------


 k-point   1 :   0.0000 0.0000 0.0000  plane waves:  189031

 maximum and minimum number of plane-waves per node :      6755     6748

 maximum number of plane-waves:    189031
 maximum index in each direction: 
   IXMAX=   31   IYMAX=   31   IZMAX=   51
   IXMIN=  -31   IYMIN=  -31   IZMIN=  -51


 parallel 3D FFT for wavefunctions:
    minimum data exchange during FFTs selected (reduces bandwidth)
 parallel 3D FFT for charge:
    minimum data exchange during FFTs selected (reduces bandwidth)


 total amount of memory used by VASP MPI-rank0    85439. kBytes
=======================================================================

   base      :      30000. kBytes
   nonl-proj :       6586. kBytes
   fftplans  :      14299. kBytes
   grid      :      23511. kBytes
   one-center:          6. kBytes
   wavefun   :      11037. kBytes
 
     INWAV:  cpu time    0.0000: real time    0.0000
 Broyden mixing: mesh for mixing (old mesh)
   NGX = 63   NGY = 63   NGZ =103
  (NGX  =256   NGY  =256   NGZ  =420)
  gives a total of 408807 points

 initial charge density was supplied:
 charge density of overlapping atoms calculated
 number of electron     216.0000000 magnetization 
 keeping initial charge density in first step


--------------------------------------------------------------------------------------------------------


 Maximum index for augmentation-charges          459 (set IRDMAX)


--------------------------------------------------------------------------------------------------------


 First call to EWALD:  gamma=   0.128
 Maximum number of real-space cells 3x 3x 2
 Maximum number of reciprocal cells 3x 3x 4

    FEWALD:  cpu time    0.0030: real time    0.0030


--------------------------------------- Iteration      1(   1)  ---------------------------------------


vdW kernel read from vdw_kernel.bindat
  0.0000  0.2424  0.5071  0.7962  1.1119  1.4567  1.8333  2.2446  2.6937  3.1842
  3.7199  4.3049  4.9438  5.6415  6.4036  7.2358  8.1446  9.1372 10.2212 11.4050
 12.6979 14.1099 15.6519 17.3360 19.1751 21.1837 23.3773 25.7729 28.3892 31.2465
 34.3669 37.7748 41.4965 45.5611 50.0000
 
    POTLOK:  cpu time    3.4616: real time    3.5026
    SETDIJ:  cpu time    0.0546: real time    0.0549
    TRIAL :  cpu time    1.5149: real time    1.5311
    CORREC:  cpu time    0.0004: real time    0.0005
    --------------------------------------------
      LOOP:  cpu time    5.0337: real time    5.1113

 eigenvalue-minimisations  :   272
 total energy-change (2. order) : 0.2854419E+04  (-0.1100634E+05)
 number of electron     216.0000000 magnetization 
 augmentation part      216.0000000 magnetization 

 Free energy of the ion-electron system (eV)
  ---------------------------------------------------
  alpha Z        PSCENC =        59.93625244
  Ewald energy   TEWEN  =     34655.38404633
  -Hartree energ DENC   =    -40829.90294674
  -exchange      EXHF   =         0.00000000
  -V(xc)+E(xc)   XCENC  =       352.89972653
  PAW double counting   =      6601.42964284    -6299.49404826
  entropy T*S    EENTRO =        -0.00000000
  eigenvalues    EBANDS =      -243.24687306
  atomic energy  EATOM  =      8557.41276814
  ---------------------------------------------------
  free energy    TOTEN  =      2854.41856821 eV

  energy without entropy =     2854.41856821  energy(sigma->0) =     2854.41856821


--------------------------------------------------------------------------------------------------------




--------------------------------------- Iteration      1(   2)  ---------------------------------------


    TRIAL :  cpu time    2.1036: real time    2.1220
    CORREC:  cpu time    0.0000: real time    0.0000
    --------------------------------------------
      LOOP:  cpu time    2.1738: real time    2.1936

 eigenvalue-minimisations  :   432
 total energy-change (2. order) :-0.2433035E+04  (-0.2280053E+04)
 number of electron     216.0000000 magnetization 
 augmentation part      216.0000000 magnetization 

 Free energy of the ion-electron system (eV)
  ---------------------------------------------------
  alpha Z        PSCENC =        59.93625244
  Ewald energy   TEWEN  =     34655.38404633
  -Hartree energ DENC   =    -40829.90294674
  -exchange      EXHF   =         0.00000000
  -V(xc)+E(xc)   XCENC  =       352.89972653
  PAW double counting   =      6601.42964284    -6299.49404826
  entropy T*S    EENTRO =        -0.00000000
  eigenvalues    EBANDS =     -2676.28167348
  atomic energy  EATOM  =      8557.41276814
  ---------------------------------------------------
  free energy    TOTEN  =       421.38376779 eV

  energy without entropy =      421.38376779  energy(sigma->0) =      421.38376779


--------------------------------------------------------------------------------------------------------




--------------------------------------- Iteration      1(   3)  ---------------------------------------


    TRIAL :  cpu time    1.8179: real time    1.8379
    CORREC:  cpu time    0.0001: real time    0.0001
    --------------------------------------------
      LOOP:  cpu time    1.8538: real time    1.9029

 eigenvalue-minimisations  :   360
 total energy-change (2. order) :-0.7923833E+03  (-0.7877986E+03)
 number of electron     216.0000000 magnetization 
 augmentation part      216.0000000 magnetization 

 Free energy of the ion-electron system (eV)
  ---------------------------------------------------
  alpha Z        PSCENC =        59.93625244
  Ewald energy   TEWEN  =     34655.38404633
  -Hartree energ DENC   =    -40829.90294674
  -exchange      EXHF   =         0.00000000
  -V(xc)+E(xc)   XCENC  =       352.89972653
  PAW double counting   =      6601.42964284    -6299.49404826
  entropy T*S    EENTRO =        -0.00000000
  eigenvalues    EBANDS =     -3468.66493373
  atomic energy  EATOM  =      8557.41276814
  ---------------------------------------------------
  free energy    TOTEN  =      -370.99949245 eV

  energy without entropy =     -370.99949245  energy(sigma->0) =     -370.99949245


--------------------------------------------------------------------------------------------------------




--------------------------------------- Iteration      1(   4)  ---------------------------------------


    TRIAL :  cpu time    1.7929: real time    1.8086
    CORREC:  cpu time    0.0001: real time    0.0001
    --------------------------------------------
      LOOP:  cpu time    1.8432: real time    1.8606

 eigenvalue-minimisations  :   352
 total energy-change (2. order) :-0.5947491E+02  (-0.5890495E+02)
 number of electron     216.0000000 magnetization 
 augmentation part      216.0000000 magnetization 

 Free energy of the ion-electron system (eV)
  ---------------------------------------------------
  alpha Z        PSCENC =        59.93625244
  Ewald energy   TEWEN  =     34655.38404633
  -Hartree energ DENC   =    -40829.90294674
  -exchange      EXHF   =         0.00000000
  -V(xc)+E(xc)   XCENC  =       352.89972653
  PAW double counting   =      6601.42964284    -6299.49404826
  entropy T*S    EENTRO =        -0.00000000
  eigenvalues    EBANDS =     -3528.13983937
  atomic energy  EATOM  =      8557.41276814
  ---------------------------------------------------
  free energy    TOTEN  =      -430.47439810 eV

  energy without entropy =     -430.47439810  energy(sigma->0) =     -430.47439810


--------------------------------------------------------------------------------------------------------




--------------------------------------- Iteration      1(   5)  ---------------------------------------


    TRIAL :  cpu time    1.8820: real time    1.8985
    CORREC:  cpu time    0.0001: real time    0.0001
    CHARGE:  cpu time    0.1190: real time    0.1208
    --------------------------------------------
      LOOP:  cpu time    2.0497: real time    2.0698

 eigenvalue-minimisations  :   376
 total energy-change (2. order) :-0.1809819E+01  (-0.1803096E+01)
 number of electron     216.0000000 magnetization 
 augmentation part       -0.1474980 magnetization 

 Free energy of the ion-electron system (eV)
  ---------------------------------------------------
  alpha Z        PSCENC =        59.93625244
  Ewald energy   TEWEN  =     34655.38404633
  -Hartree energ DENC   =    -40829.90294674
  -exchange      EXHF   =         0.00000000
  -V(xc)+E(xc)   XCENC  =       352.89972653
  PAW double counting   =      6601.42964284    -6299.49404826
  entropy T*S    EENTRO =        -0.00000000
  eigenvalues    EBANDS =     -3529.94965807
  atomic energy  EATOM  =      8557.41276814
  ---------------------------------------------------
  free energy    TOTEN  =      -432.28421680 eV

  energy without entropy =     -432.28421680  energy(sigma->0) =     -432.28421680


--------------------------------------------------------------------------------------------------------




--------------------------------------- Iteration      1(   6)  ---------------------------------------


    POTLOK:  cpu time    3.1459: real time    3.1710
    SETDIJ:  cpu time    0.0529: real time    0.0531
    TRIAL :  cpu time    0.8619: real time    0.8714
    CORREC:  cpu time    3.4939: real time    3.5312
    CHARGE:  cpu time    0.1169: real time    0.1181
    --------------------------------------------
      LOOP:  cpu time    7.7184: real time    7.7936

 eigenvalue-minimisations  :     0
 total energy-change (2. order) : 0.6317224E+02  (-0.2152967E+02)
 number of electron     216.0000000 magnetization 
 augmentation part       -0.2761766 magnetization 

 Free energy of the ion-electron system (eV)
  ---------------------------------------------------
  alpha Z        PSCENC =        59.93625244
  Ewald energy   TEWEN  =     34655.38404633
  -Hartree energ DENC   =    -42362.35345672
  -exchange      EXHF   =         0.00000000
  -V(xc)+E(xc)   XCENC  =       407.98454083
  PAW double counting   =     52706.03429247   -52428.12833934
  entropy T*S    EENTRO =        -0.00000000
  eigenvalues    EBANDS =     -1965.38208072
  atomic energy  EATOM  =      8557.41276814
  ---------------------------------------------------
  free energy    TOTEN  =      -369.11197656 eV

  energy without entropy =     -369.11197656  energy(sigma->0) =     -369.11197656


--------------------------------------------------------------------------------------------------------




--------------------------------------- Iteration      1(   7)  ---------------------------------------


    POTLOK:  cpu time    3.1335: real time    3.1585
    SETDIJ:  cpu time    0.0624: real time    0.0626
    TRIAL :  cpu time    0.8692: real time    0.8790
    CORREC:  cpu time    3.4993: real time    3.5266
    CHARGE:  cpu time    0.1168: real time    0.1180
    --------------------------------------------
      LOOP:  cpu time    7.7553: real time    7.8198

 eigenvalue-minimisations  :     0
 total energy-change (2. order) :-0.2162371E+02  (-0.2075970E+01)
 number of electron     216.0000000 magnetization 
 augmentation part       -0.3283471 magnetization 

 Free energy of the ion-electron system (eV)
  ---------------------------------------------------
  alpha Z        PSCENC =        59.93625244
  Ewald energy   TEWEN  =     34655.38404633
  -Hartree energ DENC   =    -41767.26616353
  -exchange      EXHF   =         0.00000000
  -V(xc)+E(xc)   XCENC  =       385.58256431
  PAW double counting   =     68595.62885732   -68310.68952086
  entropy T*S    EENTRO =        -0.00000000
  eigenvalues    EBANDS =     -2566.72449568
  atomic energy  EATOM  =      8557.41276814
  ---------------------------------------------------
  free energy    TOTEN  =      -390.73569152 eV

  energy without entropy =     -390.73569152  energy(sigma->0) =     -390.73569152


--------------------------------------------------------------------------------------------------------




--------------------------------------- Iteration      1(   8)  ---------------------------------------


    POTLOK:  cpu time    3.1369: real time    3.1613
    SETDIJ:  cpu time    0.0637: real time    0.0639
    TRIAL :  cpu time    0.8597: real time    0.8681
    CORREC:  cpu time    3.4875: real time    3.5154
    CHARGE:  cpu time    0.1177: real time    0.1189
    --------------------------------------------
      LOOP:  cpu time    7.7345: real time    7.8020

 eigenvalue-minimisations  :     0
 total energy-change (2. order) :-0.2074632E+01  (-0.5681124E+00)
 number of electron     216.0000000 magnetization 
 augmentation part       -0.3507463 magnetization 

 Free energy of the ion-electron system (eV)
  ---------------------------------------------------
  alpha Z        PSCENC =        59.93625244
  Ewald energy   TEWEN  =     34655.38404633
  -Hartree energ DENC   =    -41746.78527764
  -exchange      EXHF   =         0.00000000
  -V(xc)+E(xc)   XCENC  =       385.18028449
  PAW double counting   =     73895.53352227   -73609.51106559
  entropy T*S    EENTRO =        -0.00000000
  eigenvalues    EBANDS =     -2589.96085397
  atomic energy  EATOM  =      8557.41276814
  ---------------------------------------------------
  free energy    TOTEN  =      -392.81032354 eV

  energy without entropy =     -392.81032354  energy(sigma->0) =     -392.81032354


--------------------------------------------------------------------------------------------------------




--------------------------------------- Iteration      1(   9)  ---------------------------------------


    POTLOK:  cpu time    3.1234: real time    3.1468
    SETDIJ:  cpu time    0.0635: real time    0.0637
    TRIAL :  cpu time    0.8593: real time    0.8677
    CORREC:  cpu time    3.4967: real time    3.5242
    CHARGE:  cpu time    0.1180: real time    0.1192
    --------------------------------------------
      LOOP:  cpu time    7.7771: real time    7.8390

 eigenvalue-minimisations  :     0
 total energy-change (2. order) :-0.5681857E+00  (-0.2105977E+00)
 number of electron     216.0000000 magnetization 
 augmentation part       -0.3596355 magnetization 

 Free energy of the ion-electron system (eV)
  ---------------------------------------------------
  alpha Z        PSCENC =        59.93625244
  Ewald energy   TEWEN  =     34655.38404633
  -Hartree energ DENC   =    -41759.46251078
  -exchange      EXHF   =         0.00000000
  -V(xc)+E(xc)   XCENC  =       385.60683647
  PAW double counting   =     78179.41788101   -77892.94349700
  entropy T*S    EENTRO =        -0.00000000
  eigenvalues    EBANDS =     -2578.73028581
  atomic energy  EATOM  =      8557.41276814
  ---------------------------------------------------
  free energy    TOTEN  =      -393.37850919 eV

  energy without entropy =     -393.37850919  energy(sigma->0) =     -393.37850919


--------------------------------------------------------------------------------------------------------




--------------------------------------- Iteration      1(  10)  ---------------------------------------


    POTLOK:  cpu time    3.1391: real time    3.1621
    SETDIJ:  cpu time    0.0639: real time    0.0641
    TRIAL :  cpu time    0.8582: real time    0.8665
    CORREC:  cpu time    3.5038: real time    3.5353
    CHARGE:  cpu time    0.1165: real time    0.1177
    --------------------------------------------
      LOOP:  cpu time    7.7310: real time    7.7971

 eigenvalue-minimisations  :     0
 total energy-change (2. order) :-0.2101634E+00  (-0.9408389E-01)
 number of electron     216.0000000 magnetization 
 augmentation part       -0.3581174 magnetization 

 Free energy of the ion-electron system (eV)
  ---------------------------------------------------
  alpha Z        PSCENC =        59.93625244
  Ewald energy   TEWEN  =     34655.38404633
  -Hartree energ DENC   =    -41755.48666049
  -exchange      EXHF   =         0.00000000
  -V(xc)+E(xc)   XCENC  =       385.57817384
  PAW double counting   =     79980.18362565   -79693.42847278
  entropy T*S    EENTRO =        -0.00000000
  eigenvalues    EBANDS =     -2583.16840577
  atomic energy  EATOM  =      8557.41276814
  ---------------------------------------------------
  free energy    TOTEN  =      -393.58867263 eV

  energy without entropy =     -393.58867263  energy(sigma->0) =     -393.58867263


--------------------------------------------------------------------------------------------------------




--------------------------------------- Iteration      1(  11)  ---------------------------------------


    POTLOK:  cpu time    3.1454: real time    3.1700
    SETDIJ:  cpu time    0.0634: real time    0.0637
    TRIAL :  cpu time    0.8569: real time    0.8665
    CORREC:  cpu time    3.4970: real time    3.5293
    CHARGE:  cpu time    0.1169: real time    0.1182
    --------------------------------------------
      LOOP:  cpu time    7.7173: real time    7.7869

 eigenvalue-minimisations  :     0
 total energy-change (2. order) :-0.9362691E-01  (-0.3829872E-01)
 number of electron     216.0000000 magnetization 
 augmentation part       -0.3560662 magnetization 

 Free energy of the ion-electron system (eV)
  ---------------------------------------------------
  alpha Z        PSCENC =        59.93625244
  Ewald energy   TEWEN  =     34655.38404633
  -Hartree energ DENC   =    -41749.22243474
  -exchange      EXHF   =         0.00000000
  -V(xc)+E(xc)   XCENC  =       385.52302672
  PAW double counting   =     80136.31549179   -79849.49707649
  entropy T*S    EENTRO =        -0.00000000
  eigenvalues    EBANDS =     -2589.53437373
  atomic energy  EATOM  =      8557.41276814
  ---------------------------------------------------
  free energy    TOTEN  =      -393.68229954 eV

  energy without entropy =     -393.68229954  energy(sigma->0) =     -393.68229954


--------------------------------------------------------------------------------------------------------




--------------------------------------- Iteration      1(  12)  ---------------------------------------


    POTLOK:  cpu time    3.1562: real time    3.1788
    SETDIJ:  cpu time    0.0632: real time    0.0634
    TRIAL :  cpu time    0.8599: real time    0.8687
    CORREC:  cpu time    3.4888: real time    3.5188
    CHARGE:  cpu time    0.1163: real time    0.1176
    --------------------------------------------
      LOOP:  cpu time    7.7609: real time    7.8337

 eigenvalue-minimisations  :     0
 total energy-change (2. order) :-0.3812536E-01  (-0.1219891E-01)
 number of electron     216.0000000 magnetization 
 augmentation part       -0.3556872 magnetization 

 Free energy of the ion-electron system (eV)
  ---------------------------------------------------
  alpha Z        PSCENC =        59.93625244
  Ewald energy   TEWEN  =     34655.38404633
  -Hartree energ DENC   =    -41746.44998854
  -exchange      EXHF   =         0.00000000
  -V(xc)+E(xc)   XCENC  =       385.45664285
  PAW double counting   =     79705.66731868   -79418.90082461
  entropy T*S    EENTRO =        -0.00000000
  eigenvalues    EBANDS =     -2592.22664020
  atomic energy  EATOM  =      8557.41276814
  ---------------------------------------------------
  free energy    TOTEN  =      -393.72042490 eV

  energy without entropy =     -393.72042490  energy(sigma->0) =     -393.72042490


--------------------------------------------------------------------------------------------------------




--------------------------------------- Iteration      1(  13)  ---------------------------------------


    POTLOK:  cpu time    3.1411: real time    3.1644
    SETDIJ:  cpu time    0.0644: real time    0.0646
    TRIAL :  cpu time    0.8569: real time    0.8708
    CORREC:  cpu time    3.5057: real time    3.5328
    CHARGE:  cpu time    0.1158: real time    0.1171
    --------------------------------------------
      LOOP:  cpu time    7.7580: real time    7.8284

 eigenvalue-minimisations  :     0
 total energy-change (2. order) :-0.1217935E-01  (-0.3750564E-02)
 number of electron     216.0000000 magnetization 
 augmentation part       -0.3555636 magnetization 

 Free energy of the ion-electron system (eV)
  ---------------------------------------------------
  alpha Z        PSCENC =        59.93625244
  Ewald energy   TEWEN  =     34655.38404633
  -Hartree energ DENC   =    -41746.01680869
  -exchange      EXHF   =         0.00000000
  -V(xc)+E(xc)   XCENC  =       385.42167605
  PAW double counting   =     79325.65872433   -79038.94443625
  entropy T*S    EENTRO =        -0.00000000
  eigenvalues    EBANDS =     -2592.58482659
  atomic energy  EATOM  =      8557.41276814
  ---------------------------------------------------
  free energy    TOTEN  =      -393.73260424 eV

  energy without entropy =     -393.73260424  energy(sigma->0) =     -393.73260424


--------------------------------------------------------------------------------------------------------




--------------------------------------- Iteration      1(  14)  ---------------------------------------


    POTLOK:  cpu time    3.1308: real time    3.1554
    SETDIJ:  cpu time    0.0640: real time    0.0642
    TRIAL :  cpu time    0.8727: real time    0.8850
    CORREC:  cpu time    3.4987: real time    3.5362
    CHARGE:  cpu time    0.1163: real time    0.1174
    --------------------------------------------
      LOOP:  cpu time    7.7073: real time    7.8327

 eigenvalue-minimisations  :     0
 total energy-change (2. order) :-0.3748681E-02  (-0.1304012E-02)
 number of electron     216.0000000 magnetization 
 augmentation part       -0.3559323 magnetization 

 Free energy of the ion-electron system (eV)
  ---------------------------------------------------
  alpha Z        PSCENC =        59.93625244
  Ewald energy   TEWEN  =     34655.38404633
  -Hartree energ DENC   =    -41745.92389557
  -exchange      EXHF   =         0.00000000
  -V(xc)+E(xc)   XCENC  =       385.40030693
  PAW double counting   =     79166.75795536   -78880.06983600
  entropy T*S    EENTRO =        -0.00000000
  eigenvalues    EBANDS =     -2592.63395057
  atomic energy  EATOM  =      8557.41276814
  ---------------------------------------------------
  free energy    TOTEN  =      -393.73635292 eV

  energy without entropy =     -393.73635292  energy(sigma->0) =     -393.73635292


--------------------------------------------------------------------------------------------------------




--------------------------------------- Iteration      1(  15)  ---------------------------------------


    POTLOK:  cpu time    3.1431: real time    3.1662
    SETDIJ:  cpu time    0.0604: real time    0.0606
    TRIAL :  cpu time    0.8598: real time    0.8676
    CORREC:  cpu time    3.4854: real time    3.5124
    CHARGE:  cpu time    0.1163: real time    0.1175
    --------------------------------------------
      LOOP:  cpu time    7.7108: real time    7.7840

 eigenvalue-minimisations  :     0
 total energy-change (2. order) :-0.1303003E-02  (-0.6380967E-03)
 number of electron     216.0000000 magnetization 
 augmentation part       -0.3559909 magnetization 

 Free energy of the ion-electron system (eV)
  ---------------------------------------------------
  alpha Z        PSCENC =        59.93625244
  Ewald energy   TEWEN  =     34655.38404633
  -Hartree energ DENC   =    -41745.55614061
  -exchange      EXHF   =         0.00000000
  -V(xc)+E(xc)   XCENC  =       385.37479241
  PAW double counting   =     79109.45548448   -78822.77364755
  entropy T*S    EENTRO =        -0.00000000
  eigenvalues    EBANDS =     -2592.97121157
  atomic energy  EATOM  =      8557.41276814
  ---------------------------------------------------
  free energy    TOTEN  =      -393.73765593 eV

  energy without entropy =     -393.73765593  energy(sigma->0) =     -393.73765593


--------------------------------------------------------------------------------------------------------




--------------------------------------- Iteration      1(  16)  ---------------------------------------


    POTLOK:  cpu time    3.1353: real time    3.1632
    SETDIJ:  cpu time    0.0616: real time    0.0619
    TRIAL :  cpu time    0.8590: real time    0.8675
    CORREC:  cpu time    3.4857: real time    3.5135
    CHARGE:  cpu time    0.1171: real time    0.1183
    --------------------------------------------
      LOOP:  cpu time    7.7002: real time    7.7715

 eigenvalue-minimisations  :     0
 total energy-change (2. order) :-0.6363602E-03  (-0.3430651E-03)
 number of electron     216.0000000 magnetization 
 augmentation part       -0.3559826 magnetization 

 Free energy of the ion-electron system (eV)
  ---------------------------------------------------
  alpha Z        PSCENC =        59.93625244
  Ewald energy   TEWEN  =     34655.38404633
  -Hartree energ DENC   =    -41745.87512326
  -exchange      EXHF   =         0.00000000
  -V(xc)+E(xc)   XCENC  =       385.38739990
  PAW double counting   =     79050.93218891   -78764.25642636
  entropy T*S    EENTRO =        -0.00000000
  eigenvalues    EBANDS =     -2592.65939840
  atomic energy  EATOM  =      8557.41276814
  ---------------------------------------------------
  free energy    TOTEN  =      -393.73829229 eV

  energy without entropy =     -393.73829229  energy(sigma->0) =     -393.73829229


--------------------------------------------------------------------------------------------------------




--------------------------------------- Iteration      1(  17)  ---------------------------------------


    POTLOK:  cpu time    3.1312: real time    3.1547
    SETDIJ:  cpu time    0.0614: real time    0.0620
    TRIAL :  cpu time    0.8608: real time    0.8690
    CORREC:  cpu time    3.4957: real time    3.5235
    CHARGE:  cpu time    0.1177: real time    0.1188
    --------------------------------------------
      LOOP:  cpu time    7.7479: real time    7.8111

 eigenvalue-minimisations  :     0
 total energy-change (2. order) :-0.3424573E-03  (-0.1554575E-03)
 number of electron     216.0000000 magnetization 
 augmentation part       -0.3559462 magnetization 

 Free energy of the ion-electron system (eV)
  ---------------------------------------------------
  alpha Z        PSCENC =        59.93625244
  Ewald energy   TEWEN  =     34655.38404633
  -Hartree energ DENC   =    -41745.91912986
  -exchange      EXHF   =         0.00000000
  -V(xc)+E(xc)   XCENC  =       385.38978656
  PAW double counting   =     79001.09066613   -78714.41309358
  entropy T*S    EENTRO =        -0.00000000
  eigenvalues    EBANDS =     -2592.61993090
  atomic energy  EATOM  =      8557.41276814
  ---------------------------------------------------
  free energy    TOTEN  =      -393.73863474 eV

  energy without entropy =     -393.73863474  energy(sigma->0) =     -393.73863474


--------------------------------------------------------------------------------------------------------




--------------------------------------- Iteration      1(  18)  ---------------------------------------


    POTLOK:  cpu time    3.1276: real time    3.1568
    SETDIJ:  cpu time    0.0635: real time    0.0637
    TRIAL :  cpu time    0.8596: real time    0.8680
    CORREC:  cpu time    3.4996: real time    3.5281
    CHARGE:  cpu time    0.1176: real time    0.1188
    --------------------------------------------
      LOOP:  cpu time    7.7585: real time    7.8404

 eigenvalue-minimisations  :     0
 total energy-change (2. order) :-0.1556817E-03  (-0.5380710E-04)
 number of electron     216.0000000 magnetization 
 augmentation part       -0.3559612 magnetization 

 Free energy of the ion-electron system (eV)
  ---------------------------------------------------
  alpha Z        PSCENC =        59.93625244
  Ewald energy   TEWEN  =     34655.38404633
  -Hartree energ DENC   =    -41746.00074277
  -exchange      EXHF   =         0.00000000
  -V(xc)+E(xc)   XCENC  =       385.39278931
  PAW double counting   =     78990.95388511   -78704.27288924
  entropy T*S    EENTRO =        -0.00000000
  eigenvalues    EBANDS =     -2592.54489975
  atomic energy  EATOM  =      8557.41276814
  ---------------------------------------------------
  free energy    TOTEN  =      -393.73879043 eV

  energy without entropy =     -393.73879043  energy(sigma->0) =     -393.73879043


--------------------------------------------------------------------------------------------------------




--------------------------------------- Iteration      1(  19)  ---------------------------------------


    POTLOK:  cpu time    3.1341: real time    3.1582
    SETDIJ:  cpu time    0.0630: real time    0.0633
    TRIAL :  cpu time    0.8588: real time    0.8671
    CORREC:  cpu time    3.5281: real time    3.5569
    CHARGE:  cpu time    0.1168: real time    0.1180
    --------------------------------------------
      LOOP:  cpu time    7.7150: real time    7.8162

 eigenvalue-minimisations  :     0
 total energy-change (2. order) :-0.5402318E-04  (-0.2019623E-04)
 number of electron     216.0000000 magnetization 
 augmentation part       -0.3559660 magnetization 

 Free energy of the ion-electron system (eV)
  ---------------------------------------------------
  alpha Z        PSCENC =        59.93625244
  Ewald energy   TEWEN  =     34655.38404633
  -Hartree energ DENC   =    -41746.05070217
  -exchange      EXHF   =         0.00000000
  -V(xc)+E(xc)   XCENC  =       385.39447122
  PAW double counting   =     79008.16580178   -78721.48280191
  entropy T*S    EENTRO =        -0.00000000
  eigenvalues    EBANDS =     -2592.49868029
  atomic energy  EATOM  =      8557.41276814
  ---------------------------------------------------
  free energy    TOTEN  =      -393.73884445 eV

  energy without entropy =     -393.73884445  energy(sigma->0) =     -393.73884445


--------------------------------------------------------------------------------------------------------




--------------------------------------- Iteration      1(  20)  ---------------------------------------


    POTLOK:  cpu time    3.1425: real time    3.1707
    SETDIJ:  cpu time    0.0623: real time    0.0626
    TRIAL :  cpu time    0.8572: real time    0.8670
    CORREC:  cpu time    3.4857: real time    3.5182
    CHARGE:  cpu time    0.1180: real time    0.1193
    --------------------------------------------
      LOOP:  cpu time    7.7432: real time    7.8164

 eigenvalue-minimisations  :     0
 total energy-change (2. order) :-0.2032462E-04  (-0.8323857E-05)
 number of electron     216.0000000 magnetization 
 augmentation part       -0.3559333 magnetization 

 Free energy of the ion-electron system (eV)
  ---------------------------------------------------
  alpha Z        PSCENC =        59.93625244
  Ewald energy   TEWEN  =     34655.38404633
  -Hartree energ DENC   =    -41746.01754719
  -exchange      EXHF   =         0.00000000
  -V(xc)+E(xc)   XCENC  =       385.39376712
  PAW double counting   =     79026.94541536   -78740.26170505
  entropy T*S    EENTRO =        -0.00000000
  eigenvalues    EBANDS =     -2592.53186193
  atomic energy  EATOM  =      8557.41276814
  ---------------------------------------------------
  free energy    TOTEN  =      -393.73886477 eV

  energy without entropy =     -393.73886477  energy(sigma->0) =     -393.73886477


--------------------------------------------------------------------------------------------------------




--------------------------------------- Iteration      1(  21)  ---------------------------------------


    POTLOK:  cpu time    3.1322: real time    3.1571
    SETDIJ:  cpu time    0.0636: real time    0.0638
    TRIAL :  cpu time    0.8581: real time    0.8666
    CORREC:  cpu time    3.4817: real time    3.5133
    CHARGE:  cpu time    0.1176: real time    0.1188
    --------------------------------------------
      LOOP:  cpu time    7.7296: real time    7.8205

 eigenvalue-minimisations  :     0
 total energy-change (2. order) :-0.8312229E-05  (-0.3853336E-05)
 number of electron     216.0000000 magnetization 
 augmentation part       -0.3559244 magnetization 

 Free energy of the ion-electron system (eV)
  ---------------------------------------------------
  alpha Z        PSCENC =        59.93625244
  Ewald energy   TEWEN  =     34655.38404633
  -Hartree energ DENC   =    -41746.01749656
  -exchange      EXHF   =         0.00000000
  -V(xc)+E(xc)   XCENC  =       385.39420374
  PAW double counting   =     79036.57765860   -78749.89441226
  entropy T*S    EENTRO =        -0.00000000
  eigenvalues    EBANDS =     -2592.53189352
  atomic energy  EATOM  =      8557.41276814
  ---------------------------------------------------
  free energy    TOTEN  =      -393.73887309 eV

  energy without entropy =     -393.73887309  energy(sigma->0) =     -393.73887309


--------------------------------------------------------------------------------------------------------




--------------------------------------- Iteration      1(  22)  ---------------------------------------


    POTLOK:  cpu time    3.1408: real time    3.1703
    SETDIJ:  cpu time    0.0632: real time    0.0634
    TRIAL :  cpu time    0.8565: real time    0.8659
    CORREC:  cpu time    3.4959: real time    3.5261
    CHARGE:  cpu time    0.1177: real time    0.1190
    --------------------------------------------
      LOOP:  cpu time    7.7151: real time    7.8282

 eigenvalue-minimisations  :     0
 total energy-change (2. order) :-0.3790003E-05  (-0.1422815E-05)
 number of electron     216.0000000 magnetization 
 augmentation part       -0.3559114 magnetization 

 Free energy of the ion-electron system (eV)
  ---------------------------------------------------
  alpha Z        PSCENC =        59.93625244
  Ewald energy   TEWEN  =     34655.38404633
  -Hartree energ DENC   =    -41745.98994531
  -exchange      EXHF   =         0.00000000
  -V(xc)+E(xc)   XCENC  =       385.39323136
  PAW double counting   =     79038.54520444   -78751.86213971
  entropy T*S    EENTRO =        -0.00000000
  eigenvalues    EBANDS =     -2592.55829458
  atomic energy  EATOM  =      8557.41276814
  ---------------------------------------------------
  free energy    TOTEN  =      -393.73887688 eV

  energy without entropy =     -393.73887688  energy(sigma->0) =     -393.73887688


--------------------------------------------------------------------------------------------------------




--------------------------------------- Iteration      1(  23)  ---------------------------------------


    POTLOK:  cpu time    3.1360: real time    3.1630
    SETDIJ:  cpu time    0.0614: real time    0.0618
    TRIAL :  cpu time    0.8560: real time    0.8669
    CORREC:  cpu time    3.4934: real time    3.5260
    CHARGE:  cpu time    0.1167: real time    0.1178
    --------------------------------------------
      LOOP:  cpu time    7.6992: real time    7.7778

 eigenvalue-minimisations  :     0
 total energy-change (2. order) :-0.1424371E-05  (-0.6332687E-06)
 number of electron     216.0000000 magnetization 
 augmentation part       -0.3559186 magnetization 

 Free energy of the ion-electron system (eV)
  ---------------------------------------------------
  alpha Z        PSCENC =        59.93625244
  Ewald energy   TEWEN  =     34655.38404633
  -Hartree energ DENC   =    -41745.98928914
  -exchange      EXHF   =         0.00000000
  -V(xc)+E(xc)   XCENC  =       385.39346532
  PAW double counting   =     79037.60489543   -78750.92203098
  entropy T*S    EENTRO =        -0.00000000
  eigenvalues    EBANDS =     -2592.55898584
  atomic energy  EATOM  =      8557.41276814
  ---------------------------------------------------
  free energy    TOTEN  =      -393.73887830 eV

  energy without entropy =     -393.73887830  energy(sigma->0) =     -393.73887830


--------------------------------------------------------------------------------------------------------




--------------------------------------- Iteration      1(  24)  ---------------------------------------


    POTLOK:  cpu time    3.1494: real time    3.1743
    SETDIJ:  cpu time    0.0639: real time    0.0641
    TRIAL :  cpu time    0.8599: real time    0.8686
    CORREC:  cpu time    3.4806: real time    3.5095
    CHARGE:  cpu time    0.1155: real time    0.1168
    --------------------------------------------
      LOOP:  cpu time    7.7525: real time    7.8448

 eigenvalue-minimisations  :     0
 total energy-change (2. order) :-0.6352930E-06  (-0.2934878E-06)
 number of electron     216.0000000 magnetization 
 augmentation part       -0.3559258 magnetization 

 Free energy of the ion-electron system (eV)
  ---------------------------------------------------
  alpha Z        PSCENC =        59.93625244
  Ewald energy   TEWEN  =     34655.38404633
  -Hartree energ DENC   =    -41745.97839873
  -exchange      EXHF   =         0.00000000
  -V(xc)+E(xc)   XCENC  =       385.39310669
  PAW double counting   =     79036.28130007   -78749.59834335
  entropy T*S    EENTRO =        -0.00000000
  eigenvalues    EBANDS =     -2592.56961054
  atomic energy  EATOM  =      8557.41276814
  ---------------------------------------------------
  free energy    TOTEN  =      -393.73887893 eV

  energy without entropy =     -393.73887893  energy(sigma->0) =     -393.73887893


--------------------------------------------------------------------------------------------------------




--------------------------------------- Iteration      1(  25)  ---------------------------------------


    POTLOK:  cpu time    3.1325: real time    3.1597
    SETDIJ:  cpu time    0.0624: real time    0.0626
    TRIAL :  cpu time    0.8597: real time    0.8684
    CORREC:  cpu time    3.5084: real time    3.5370
    CHARGE:  cpu time    0.1176: real time    0.1192
    --------------------------------------------
      LOOP:  cpu time    7.7739: real time    7.8417

 eigenvalue-minimisations  :     0
 total energy-change (2. order) :-0.2800953E-06  (-0.1518029E-06)
 number of electron     216.0000000 magnetization 
 augmentation part       -0.3559303 magnetization 

 Free energy of the ion-electron system (eV)
  ---------------------------------------------------
  alpha Z        PSCENC =        59.93625244
  Ewald energy   TEWEN  =     34655.38404633
  -Hartree energ DENC   =    -41745.98128857
  -exchange      EXHF   =         0.00000000
  -V(xc)+E(xc)   XCENC  =       385.39320922
  PAW double counting   =     79035.35020529   -78748.66723991
  entropy T*S    EENTRO =        -0.00000000
  eigenvalues    EBANDS =     -2592.56683217
  atomic energy  EATOM  =      8557.41276814
  ---------------------------------------------------
  free energy    TOTEN  =      -393.73887921 eV

  energy without entropy =     -393.73887921  energy(sigma->0) =     -393.73887921


--------------------------------------------------------------------------------------------------------




--------------------------------------- Iteration      1(  26)  ---------------------------------------


    POTLOK:  cpu time    3.1425: real time    3.1667
    SETDIJ:  cpu time    0.0615: real time    0.0617
    TRIAL :  cpu time    0.8606: real time    0.8693
    CORREC:  cpu time    3.4955: real time    3.5291
    CHARGE:  cpu time    0.1174: real time    0.1186
    --------------------------------------------
      LOOP:  cpu time    7.7608: real time    7.8335

 eigenvalue-minimisations  :     0
 total energy-change (2. order) :-0.1262088E-06  (-0.7339378E-07)
 number of electron     216.0000000 magnetization 
 augmentation part       -0.3559343 magnetization 

 Free energy of the ion-electron system (eV)
  ---------------------------------------------------
  alpha Z        PSCENC =        59.93625244
  Ewald energy   TEWEN  =     34655.38404633
  -Hartree energ DENC   =    -41745.98459802
  -exchange      EXHF   =         0.00000000
  -V(xc)+E(xc)   XCENC  =       385.39336410
  PAW double counting   =     79034.78875833   -78748.10583261
  entropy T*S    EENTRO =        -0.00000000
  eigenvalues    EBANDS =     -2592.56363806
  atomic energy  EATOM  =      8557.41276814
  ---------------------------------------------------
  free energy    TOTEN  =      -393.73887934 eV

  energy without entropy =     -393.73887934  energy(sigma->0) =     -393.73887934


--------------------------------------------------------------------------------------------------------




--------------------------------------- Iteration      1(  27)  ---------------------------------------


    POTLOK:  cpu time    3.1503: real time    3.1743
    SETDIJ:  cpu time    0.0624: real time    0.0626
    TRIAL :  cpu time    0.8603: real time    0.8686
    CORREC:  cpu time    3.4999: real time    3.5285
    EDDIAG:  cpu time    0.3255: real time    0.3297
    CHARGE:  cpu time    0.1167: real time    0.1179
    --------------------------------------------
      LOOP:  cpu time    8.0562: real time    8.1280

 eigenvalue-minimisations  :     0
 total energy-change (2. order) :-0.6114715E-07  (-0.3308786E-07)
 number of electron     216.0000000 magnetization 
 augmentation part       -0.3559324 magnetization 

 Free energy of the ion-electron system (eV)
  ---------------------------------------------------
  alpha Z        PSCENC =        59.93625244
  Ewald energy   TEWEN  =     34655.38404633
  -Hartree energ DENC   =    -41745.98329421
  -exchange      EXHF   =         0.00000000
  -V(xc)+E(xc)   XCENC  =       385.39321182
  PAW double counting   =     79034.60220205   -78747.91926302
  entropy T*S    EENTRO =        -0.00000000
  eigenvalues    EBANDS =     -2592.56480296
  atomic energy  EATOM  =      8557.41276814
  ---------------------------------------------------
  free energy    TOTEN  =      -393.73887940 eV

  energy without entropy =     -393.73887940  energy(sigma->0) =     -393.73887940


--------------------------------------------------------------------------------------------------------


  average scaling for gradient   0.8455


 average (electrostatic) potential at core
  the test charge radii are     0.5770  0.5955
  (the norm of the test charge is              1.0000)
       1 -86.4471       2 -86.4407       3 -86.4541       4 -86.4569       5 -86.4375
       6 -86.4335       7 -86.4428       8 -86.4211       9 -86.4345      10 -86.4313
[...]
      16 -86.4336      17 -86.4404      18 -86.4424      19 -86.4461      20 -86.4406
      21 -86.4269      22 -86.4312      23 -86.4463      24 -86.4462      25 -86.4361
      26 -86.4386      27 -86.4345      28 -86.4498      29 -86.4330      30 -86.4359
      31 -86.4585      32 -86.4491      33 -86.4442      34 -86.4381      35 -86.4358
      36 -86.4392      37 -86.4414      38 -86.4447      39 -86.4447      40 -86.4421
      41 -86.4431      42 -86.4467      43 -86.4398      44 -86.4469      45 -86.4352
      46 -86.4337      47 -86.4417      48 -86.4381      49 -86.4434      50 -86.4414
      51 -90.6829      52-120.4466      53-120.4495
 
 
 
 E-fermi :  -4.0218     XC(G=0):  -2.7089     alpha+bet : -2.1113

 Fermi energy:        -4.0218006371

 k-point     1 :       0.0000    0.0000    0.0000
  band No.  band energies     occupation 
      1     -27.5318      2.00000
      2     -26.5783      2.00000
      3     -22.0523      2.00000
      4     -21.1374      2.00000
      5     -21.1296      2.00000
      6     -21.1226      2.00000
      7     -21.1221      2.00000
      8     -21.1192      2.00000
      9     -21.1159      2.00000
     10     -19.3165      2.00000
     11     -19.3138      2.00000
     12     -19.3077      2.00000
     13     -19.3066      2.00000
     14     -19.3049      2.00000
     15     -19.3045      2.00000
     16     -18.4336      2.00000
     17     -18.4313      2.00000
     18     -18.4288      2.00000
     19     -18.4267      2.00000
     20     -18.4256      2.00000
     21     -18.4250      2.00000
     22     -16.3380      2.00000
     23     -16.3363      2.00000
     24     -16.3327      2.00000
     25     -16.3321      2.00000
     26     -16.3281      2.00000
     27     -16.3274      2.00000
     28     -15.2924      2.00000
     29     -15.2912      2.00000
     30     -15.2874      2.00000
     31     -15.2865      2.00000
     32     -15.2852      2.00000
     33     -15.2847      2.00000
     34     -13.9780      2.00000
     35     -13.9772      2.00000
     36     -13.9761      2.00000
     37     -13.9743      2.00000
     38     -13.9742      2.00000
     39     -13.9736      2.00000
     40     -12.4376      2.00000
     41     -11.6818      2.00000
     42     -11.6808      2.00000
     43     -11.6776      2.00000
     44     -11.6772      2.00000
     45     -11.6770      2.00000
     46     -11.6766      2.00000
     47     -11.5148      2.00000
     48     -11.5128      2.00000
     49     -11.5112      2.00000
     50     -11.5109      2.00000
     51     -11.5073      2.00000
     52     -11.5070      2.00000
     53     -11.3288      2.00000
     54     -11.2506      2.00000
     55     -11.1540      2.00000
     56     -10.1945      2.00000
     57     -10.1601      2.00000
     58     -10.1598      2.00000
     59     -10.1586      2.00000
     60     -10.1582      2.00000
     61     -10.1574      2.00000
     62     -10.1567      2.00000
     63      -9.1226      2.00000
     64      -9.1200      2.00000
     65      -9.1166      2.00000
     66      -9.1129      2.00000
     67      -9.1123      2.00000
     68      -9.0606      2.00000
     69      -8.9807      2.00000
     70      -8.9770      2.00000
     71      -8.9761      2.00000
     72      -8.9757      2.00000
     73      -8.9748      2.00000
     74      -8.9729      2.00000
     75      -8.9232      2.00000
     76      -8.9222      2.00000
     77      -8.9217      2.00000
     78      -8.9194      2.00000
     79      -8.9190      2.00000
     80      -8.9173      2.00000
     81      -7.7173      2.00000
     82      -7.6666      2.00000
     83      -7.3689      2.00000
     84      -7.3685      2.00000
     85      -7.3669      2.00000
     86      -7.3647      2.00000
     87      -7.3628      2.00000
     88      -7.3626      2.00000
     89      -7.0099      2.00000
     90      -7.0022      2.00000
     91      -6.9960      2.00000
     92      -6.9926      2.00000
     93      -6.9906      2.00000
     94      -6.9262      2.00000
     95      -6.1206      2.00000
     96      -6.1175      2.00000
     97      -6.1104      2.00000
     98      -6.1079      2.00000
     99      -6.1025      2.00000
    100      -6.0742      2.00000
    101      -5.9434      2.00000
    102      -5.9410      2.00000
    103      -4.1579      2.00000
    104      -4.1526      2.00000
    105      -4.1479      2.00000
    106      -4.1449      2.00000
    107      -4.1399      2.00000
    108      -4.1391      2.00000
    109      -1.3790      0.00000
    110      -1.3746      0.00000
    111      -1.3612      0.00000
    112      -1.3584      0.00000
    113      -1.3559      0.00000
    114      -1.3520      0.00000
    115      -0.1590      0.00000
    116       0.4701      0.00000
    117       0.4807      0.00000
    118       0.4871      0.00000
    119       0.4900      0.00000
    120       0.4927      0.00000
    121       0.5740      0.00000
    122       0.6271      0.00000
    123       0.6798      0.00000
    124       0.9811      0.00000
    125       1.0998      0.00000
    126       1.2196      0.00000
    127       1.2573      0.00000
    128       1.2700      0.00000
    129       1.3335      0.00000
    130       1.3619      0.00000
    131       1.5945      0.00000
    132       1.8923      0.00000
    133       2.0939      0.00000
    134       2.1918      0.00000
    135       2.1972      0.00000
    136       2.2071      0.00000


--------------------------------------------------------------------------------------------------------


 soft charge-density along one line, spin component           1
         0         1         2         3         4         5         6         7         8         9
 total charge-density along one line
 
 pseudopotential strength for first ion, spin component:           1
 12.607  21.217  -0.000   0.000   0.000  -0.000   0.000   0.000
 21.217  35.705  -0.000   0.000   0.000  -0.000   0.000   0.000
 -0.000  -0.000  -3.322  -0.000   0.000  -5.953  -0.000   0.000
  0.000   0.000  -0.000  -3.357  -0.000  -0.000  -6.015  -0.000
  0.000   0.000   0.000  -0.000  -3.322   0.000  -0.000  -5.953
 -0.000  -0.000  -5.953  -0.000   0.000 -10.646  -0.000   0.000
  0.000   0.000  -0.000  -6.015  -0.000  -0.000 -10.756  -0.000
  0.000   0.000   0.000  -0.000  -5.953   0.000  -0.000 -10.646
 total augmentation occupancy for first ion, spin component:           1
  6.240  -2.004  -0.000  -0.001   0.000   0.000   0.001  -0.000
 -2.004   0.690   0.000   0.001  -0.000  -0.000  -0.000   0.000
 -0.000   0.000   5.991  -0.007   0.000  -1.878   0.003  -0.000
 -0.001   0.001  -0.007   2.310  -0.000   0.003  -0.483   0.000
  0.000  -0.000   0.000  -0.000   5.991  -0.000   0.000  -1.878
  0.000  -0.000  -1.878   0.003  -0.000   0.606  -0.001   0.000
  0.001  -0.000   0.003  -0.483   0.000  -0.001   0.111   0.000
 -0.000   0.000  -0.000   0.000  -1.878   0.000   0.000   0.606


------------------------ aborting loop because EDIFF is reached ----------------------------------------


    FORLOC:  cpu time    0.0516: real time    0.0521
    FORNL :  cpu time    0.6772: real time    0.6810
    FORCOR:  cpu time    3.2331: real time    3.2576
    OFIELD:  cpu time    0.0015: real time    0.0015

 VOLUME and BASIS-vectors are now :
 -----------------------------------------------------------------------------
  energy-cutoff  :     1000.00
  volume of cell :     2631.08
      direct lattice vectors                 reciprocal lattice vectors
    12.325000000  0.000000000  0.000000000     0.081135903  0.046843835  0.000000000
    -6.162500000 10.673763102  0.000000000     0.000000000  0.093687670  0.000000000
     0.000000000  0.000000000 20.000000000     0.000000000  0.000000000  0.050000000

  length of vectors
    12.325000000 12.325000000 20.000000000     0.093687670  0.093687670  0.050000000


 FORCES acting on ions:
    Electron-Ion                     Ewald-Force                    Non-Local-Force
 -----------------------------------------------------------------------------------------------
   0.121E+02 0.106E+02 0.226E+02   -.121E+02 -.106E+02 -.226E+02   0.150E-01 -.783E-02 0.152E-01
   0.202E+02 0.101E+02 0.308E+02   -.203E+02 -.101E+02 -.308E+02   0.209E-01 -.162E-01 -.351E-02
   0.102E+02 0.259E+02 0.395E+02   -.102E+02 -.260E+02 -.395E+02   -.166E-02 0.521E-01 0.492E-01
   0.168E+02 0.247E+02 0.675E+02   -.169E+02 -.247E+02 -.676E+02   0.670E-01 0.253E-01 0.825E-01
   0.132E+02 0.314E+01 0.227E+02   -.132E+02 -.312E+01 -.226E+02   0.308E-02 -.192E-01 -.282E-02
   0.139E+02 -.234E+01 0.233E+02   -.139E+02 0.235E+01 -.232E+02   -.257E-01 -.614E-02 -.116E-01
   0.283E+02 0.118E+02 0.568E+02   -.284E+02 -.117E+02 -.568E+02   0.583E-01 -.812E-01 -.320E-01
   0.282E+02 -.941E+01 0.611E+02   -.282E+02 0.946E+01 -.610E+02   -.650E-02 -.351E-01 -.171E+00
   -.113E+02 0.242E+02 0.410E+02   0.113E+02 -.241E+02 -.410E+02   -.250E-01 -.131E-01 -.439E-01
   -.213E+02 0.182E+02 0.659E+02   0.213E+02 -.183E+02 -.659E+02   -.732E-01 0.386E-01 -.167E+00
   0.322E+01 -.282E+01 0.176E+02   -.320E+01 0.280E+01 -.176E+02   -.751E-02 0.627E-02 -.564E-02
   0.254E+01 -.205E+01 0.162E+02   -.254E+01 0.205E+01 -.162E+02   -.168E-01 0.729E-02 0.169E-02
   0.107E+02 -.262E+02 0.710E+02   -.108E+02 0.263E+02 -.709E+02   0.106E+00 -.112E-01 -.191E+00
   0.476E+01 -.263E+02 0.403E+02   -.480E+01 0.263E+02 -.403E+02   0.312E-01 0.572E-02 -.407E-01
   -.118E+02 0.746E+01 0.222E+02   0.118E+02 -.745E+01 -.222E+02   0.177E-01 -.986E-02 -.480E-02
   -.178E+02 0.497E+01 0.267E+02   0.178E+02 -.498E+01 -.267E+02   0.234E-02 0.886E-02 -.234E-01
   -.173E+01 -.711E+00 0.154E+02   0.174E+01 0.708E+00 -.154E+02   -.528E-02 -.806E-03 0.128E-02
   0.971E+00 0.641E+01 0.167E+02   -.966E+00 -.640E+01 -.167E+02   -.981E-02 0.430E-02 0.878E-02
   -.370E+01 -.212E+02 0.292E+02   0.367E+01 0.212E+02 -.292E+02   0.349E-01 -.494E-02 0.179E-01
   -.153E+01 -.998E+01 0.188E+02   0.152E+01 0.998E+01 -.188E+02   0.547E-02 -.601E-02 -.155E-02
   0.213E+02 -.922E+01 0.339E+02   -.212E+02 0.921E+01 -.338E+02   -.128E-01 -.253E-02 -.494E-01
   0.123E+02 -.107E+02 0.253E+02   -.123E+02 0.107E+02 -.253E+02   -.156E-01 0.219E-01 -.125E-01
   -.528E+01 0.123E+02 0.898E+02   0.539E+01 -.124E+02 -.899E+02   -.989E-01 0.698E-01 -.441E-01
   -.986E+01 -.196E+02 0.838E+02   0.978E+01 0.197E+02 -.839E+02   0.710E-01 -.817E-01 -.743E-02
   0.559E+01 -.249E+01 0.177E+02   -.557E+01 0.249E+01 -.177E+02   -.142E-01 0.300E-02 -.994E-02
   0.101E+01 0.503E+01 0.180E+02   -.100E+01 -.503E+01 -.180E+02   -.143E-01 0.638E-02 -.135E-02
   -.280E+02 0.311E+01 0.462E+02   0.280E+02 -.316E+01 -.461E+02   0.205E-02 0.371E-01 -.563E-01
   -.253E+02 -.109E+02 0.406E+02   0.253E+02 0.109E+02 -.406E+02   -.447E-01 0.406E-01 0.243E-01
   0.753E+01 -.155E+02 0.267E+02   -.754E+01 0.155E+02 -.267E+02   0.922E-02 0.130E-01 -.173E-01
   0.701E+00 -.560E+01 0.191E+02   -.715E+00 0.558E+01 -.191E+02   0.433E-02 0.120E-01 -.942E-02
   -.209E+02 -.226E+02 0.519E+02   0.209E+02 0.227E+02 -.519E+02   -.524E-01 -.340E-01 0.790E-01
   -.115E+02 -.208E+02 0.316E+02   0.115E+02 0.209E+02 -.317E+02   -.124E-02 -.324E-01 0.309E-01
   0.642E+00 0.266E+01 0.160E+02   -.648E+00 -.266E+01 -.160E+02   0.125E-01 -.943E-02 0.382E-02
   0.186E+01 0.270E+01 0.175E+02   -.186E+01 -.269E+01 -.175E+02   0.112E-02 -.681E-02 -.630E-02
   -.823E+01 0.991E+00 0.196E+02   0.822E+01 -.100E+01 -.196E+02   0.127E-01 0.313E-02 -.211E-02
   -.703E+01 -.280E+01 0.189E+02   0.704E+01 0.279E+01 -.189E+02   -.121E-01 0.990E-02 -.317E-02
   -.144E+02 -.755E+01 0.233E+02   0.145E+02 0.754E+01 -.233E+02   -.180E-01 0.477E-02 0.183E-02
   -.821E+01 -.667E+01 0.186E+02   0.822E+01 0.667E+01 -.186E+02   -.120E-01 0.376E-02 0.107E-01
   -.774E+01 -.101E+02 0.203E+02   0.775E+01 0.102E+02 -.203E+02   -.124E-01 -.977E-02 0.749E-02
   -.113E+01 -.238E+01 0.166E+02   0.113E+01 0.239E+01 -.166E+02   0.155E-02 -.249E-02 0.809E-02
   0.290E+01 0.692E+01 0.176E+02   -.290E+01 -.693E+01 -.176E+02   -.363E-02 0.111E-01 0.774E-02
   0.979E+01 0.153E+02 0.244E+02   -.980E+01 -.153E+02 -.244E+02   0.137E-01 0.153E-01 0.173E-01
   0.776E+00 0.125E+02 0.200E+02   -.765E+00 -.125E+02 -.200E+02   -.921E-02 0.100E-01 -.111E-02
   0.215E+00 0.241E+02 0.330E+02   -.177E+00 -.241E+02 -.330E+02   -.435E-01 0.124E-01 0.207E-01
   -.237E+01 0.472E+01 0.191E+02   0.237E+01 -.472E+01 -.191E+02   0.599E-03 -.959E-02 -.680E-02
   -.101E+02 0.130E+02 0.253E+02   0.101E+02 -.130E+02 -.253E+02   -.640E-02 -.420E-02 -.172E-01
   -.167E+01 -.471E+01 0.173E+02   0.166E+01 0.471E+01 -.173E+02   0.159E-01 -.131E-02 0.976E-03
   -.439E+01 0.180E+01 0.165E+02   0.438E+01 -.180E+01 -.165E+02   0.113E-01 -.183E-02 -.866E-02
   0.333E+00 -.292E+01 0.162E+02   -.333E+00 0.292E+01 -.162E+02   0.840E-02 -.345E-02 0.568E-02
   0.462E+01 0.340E+01 0.165E+02   -.462E+01 -.339E+01 -.165E+02   0.552E-02 0.403E-02 0.364E-02
   0.216E+00 -.137E+00 -.386E+03   -.204E+00 0.128E+00 0.386E+03   -.213E-01 0.110E-01 0.101E-01
   -.229E+03 0.155E+03 -.591E+03   0.279E+03 -.190E+03 0.594E+03   -.510E+02 0.348E+02 -.300E+01
   0.229E+03 -.156E+03 -.570E+03   -.279E+03 0.190E+03 0.567E+03   0.510E+02 -.348E+02 0.353E+01
 -----------------------------------------------------------------------------------------------
   0.472E-01 -.522E-03 0.111E-01   0.000E+00 0.284E-13 0.682E-12   -.472E-01 0.540E-03 -.133E-01
 
 
 POSITION                                       TOTAL-FORCE (eV/Angst)
 -----------------------------------------------------------------------------------
     11.98348      0.00342      0.01417         0.001099     -0.001357      0.000169
     -0.34154      1.42665      0.01100         0.005204      0.005240      0.001804
      2.12355      0.00315      0.01249         0.002883     -0.009914      0.008040
      2.12326      1.42653      0.00641        -0.002816      0.006320     -0.018510
     10.75099      2.13819      0.01213        -0.000077     -0.003636      0.003354
     -1.57382      3.56123      0.01110        -0.005302      0.007302      0.001956
      0.89078      2.13854      0.00548        -0.010957      0.008416     -0.019523
      0.89099      3.56147      0.00181        -0.007288      0.014839     -0.051827
      4.58864      0.00346      0.01135         0.009126      0.020061     -0.003433
      4.58894      1.42623      0.00646         0.006178     -0.006310     -0.069353
      9.51854      4.27281      0.01369         0.007849     -0.009675      0.000455
     -2.80632      5.69591      0.01434        -0.010509      0.006064      0.001239
      2.12300      4.27302      0.00000        -0.011775      0.021380     -0.089623
      2.12335      5.69594      0.00581        -0.005685     -0.027321     -0.002301
      7.05344      0.00333      0.01399         0.004559     -0.001722      0.003452
      7.05353      1.42635      0.01368        -0.006156      0.005819      0.001550
      8.28610      6.40752      0.01601         0.004273     -0.003583     -0.000132
     -4.03885      7.83070      0.01636        -0.004491      0.004744      0.000367
      3.35586      6.40753      0.01007         0.004874      0.002462      0.004473
      3.35599      7.83072      0.01320        -0.002871     -0.001661      0.000420
     -0.34146      4.27290      0.00723         0.019921     -0.012990     -0.000004
     -0.34138      5.69591      0.00946        -0.006626      0.003784      0.005246
      3.35624      2.13791      0.00222         0.012210     -0.008790     -0.128681
      3.35573      3.56155      0.00139        -0.003272      0.011244     -0.089746
     -1.57395      6.40758      0.01311         0.011909     -0.003010     -0.000701
     -1.57385      7.83068      0.01438        -0.004893      0.004260      0.000521
      5.82093      2.13784      0.01033        -0.010356     -0.016013     -0.010137
      5.82114      3.56097      0.01156         0.000933     -0.001120      0.005896
      0.89092      6.40755      0.00907         0.002701     -0.000035      0.004649
      0.89106      7.83068      0.01235        -0.009879     -0.001490      0.000488
      4.58871      4.27293      0.00850        -0.000006     -0.007950      0.004876
      4.58852      5.69606      0.01149         0.000790      0.012285      0.004054
      9.51845      0.00337      0.01490         0.006856     -0.006638      0.000623
      9.51855      1.42644      0.01438        -0.004321      0.011039     -0.000236
      8.28593      2.13803      0.01453         0.002753     -0.006648      0.001672
      8.28613      3.56115      0.01464        -0.004642      0.001718      0.000741
      7.05356      4.27269      0.01457         0.002271     -0.001196      0.001850
      7.05362      5.69588      0.01553        -0.002942      0.001098      0.000097
      5.82112      6.40755      0.01489        -0.000688      0.000467     -0.000093
      5.82102      7.83073      0.01579        -0.001585      0.003151     -0.000025
      7.05363      8.54227      0.01631        -0.000366     -0.002068      0.001259
     -5.27149      9.96549      0.01495        -0.001975     -0.002409     -0.000749
     -2.80638      8.54234      0.01558         0.002376     -0.000100      0.000239
     -2.80627      9.96553      0.01362        -0.004721     -0.000828      0.005350
     -0.34149      8.54239      0.01378         0.006540     -0.000519      0.000939
     -0.34138      9.96550      0.01354        -0.007358      0.003222      0.003723
      2.12343      8.54232      0.01336         0.006932     -0.000899      0.000996
      2.12354      9.96544      0.01469        -0.008559      0.003550     -0.001928
      4.58846      8.54235      0.01505         0.007743     -0.005957      0.001363
      4.58853      9.96550      0.01517        -0.002776      0.004952      0.001021
      3.04930      2.68154      2.97302        -0.008429      0.001394      0.105330
      4.02070      2.02068      3.03744        -0.440430      0.315260      0.103196
      2.07767      3.34267      2.91356         0.461772     -0.336233      0.205596
 -----------------------------------------------------------------------------------
    total drift:                                0.000008      0.000019     -0.002119


--------------------------------------------------------------------------------------------------------



  FREE ENERGIE OF THE ION-ELECTRON SYSTEM (eV)
  ---------------------------------------------------
  free  energy   TOTEN  =      -393.73887940 eV

  energy  without entropy=     -393.73887940  energy(sigma->0) =     -393.73887940
 


--------------------------------------------------------------------------------------------------------


    POTLOK:  cpu time    3.1991: real time    3.2228


--------------------------------------------------------------------------------------------------------


     LOOP+:  cpu time  212.7877: real time  215.0766
    4ORBIT:  cpu time    0.0000: real time    0.0000

 total amount of memory used by VASP MPI-rank0    85439. kBytes
=======================================================================

   base      :      30000. kBytes
   nonl-proj :       6586. kBytes
   fftplans  :      14299. kBytes
   grid      :      23511. kBytes
   one-center:          6. kBytes
   wavefun   :      11037. kBytes
 
  
  
 General timing and accounting informations for this job:
 ========================================================
  
                  Total CPU time used (sec):      248.573
                            User time (sec):      227.590
                          System time (sec):       20.982
                         Elapsed time (sec):      252.375
  
                   Maximum memory used (kb):      681232.
                   Average memory used (kb):          N/A
  
                          Minor page faults:       357466
                          Major page faults:           88
                 Voluntary context switches:         3711
