 vasp.6.2.1 16May21 (build Nov 06 2021 14:46:37) complex                        
  
 executed on             LinuxIFC date 2025.04.16  20:22:25
 running on  112 total cores
 distrk:  each k-point on  112 cores,    1 groups
 distr:  one band on NCORE=  28 cores,    4 groups


--------------------------------------------------------------------------------------------------------


 INCAR:
   NPAR = 4
   ALGO = Conjugate
   ISMEAR = 0
   SIGMA = 0.01
   PREC = Accurate
   EDIFF = 1E-7
   ENCUT = 1000
   ISIF = 0
   GGA = ML
   LUSE_VDW = .TRUE.
   ZAB_VDW = -1.8867
   AGGAC = 0.0000
   LASPH = .TRUE.
   SYMPREC = 1E-7
   LWAVE = .FALSE.
   LCHARGE = .FALSE.

 POTCAR:    PAW_PBE C_h 06Feb2004                 
 POTCAR:    PAW_PBE O_h 06Feb2004                 
 -----------------------------------------------------------------------------
|                                                                             |
|           W    W    AA    RRRRR   N    N  II  N    N   GGGG   !!!           |
|           W    W   A  A   R    R  NN   N  II  NN   N  G    G  !!!           |
|           W    W  A    A  R    R  N N  N  II  N N  N  G       !!!           |
|           W WW W  AAAAAA  RRRRR   N  N N  II  N  N N  G  GGG   !            |
|           WW  WW  A    A  R   R   N   NN  II  N   NN  G    G                |
|           W    W  A    A  R    R  N    N  II  N    N   GGGG   !!!           |
|                                                                             |
|     For optimal performance we recommend to set                             |
|       NCORE = 2 up to number-of-cores-per-socket                            |
|     NCORE specifies how many cores store one orbital (NPAR=cpu/NCORE).      |
|     This setting can greatly improve the performance of VASP for DFT.       |
|     The default, NCORE=1 might be grossly inefficient on modern             |
|     multi-core architectures or massively parallel machines. Do your        |
|     own testing! More info at https://www.vasp.at/wiki/index.php/NCORE      |
|     Unfortunately you need to use the default for GW and RPA                |
|     calculations (for HF NCORE is supported but not extensively tested      |
|     yet).                                                                   |
|                                                                             |
 -----------------------------------------------------------------------------

 -----------------------------------------------------------------------------
|                                                                             |
|               ----> ADVICE to this user running VASP <----                  |
|                                                                             |
|     You have switched on vdW-DFT.                                           |
|     This routine was written and supplied by Jiri Klimes. We recommend      |
|     that you carefully read and cite the following publications:            |
|       J. Klimes, D.R. Bowler, A. Michelides                                 |
|          J. Phys.: Cond Matt. 22 022201 (2010)                              |
|       J. Klimes, D.R. Bowler, A. Michelides                                 |
|          Phys. Rev. B. 83, 195131 (2011)                                    |
|     and references therein.                                                 |
|                                                                             |
 -----------------------------------------------------------------------------

 POTCAR:    PAW_PBE C_h 06Feb2004                 
   VRHFIN =C: s2p2                                                                                  
   LEXCH  = PE                                                                                      
   EATOM  =   147.1560 eV,   10.8157 Ry                                                             
                                                                                                    
   TITEL  = PAW_PBE C_h 06Feb2004                                                                   
   LULTRA =        F    use ultrasoft PP ?                                                          
   IUNSCR =        1    unscreen: 0-lin 1-nonlin 2-no                                               
   RPACOR =    0.800    partial core radius                                                         
   POMASS =   12.011; ZVAL   =    4.000    mass and valenz                                          
   RCORE  =    1.100    outmost cutoff radius                                                       
   RWIGS  =    1.630; RWIGS  =    0.863    wigner-seitz radius (au A)                               
   ENMAX  =  700.000; ENMIN  =  500.000 eV                                                          
   ICORE  =        2    local potential                                                             
   LCOR   =        T    correct aug charges                                                         
   LPAW   =        T    paw PP                                                                      
   EAUG   =  946.768                                                                                
   DEXC   =    0.000                                                                                
   RMAX   =    1.128    core radius for proj-oper                                                   
   RAUG   =    1.300    factor for augmentation sphere                                              
   RDEP   =    1.162    radius for radial grids                                                     
   RDEPT  =    1.088    core radius for aug-charge                                                  
                                                                                                    
   Atomic configuration                                                                             
    4 entries                                                                                       
     n  l   j            E        occ.                                                              
     1  0  0.50      -273.3789   2.0000                                                             
     2  0  0.50       -13.7508   2.0000                                                             
     2  1  0.50        -5.2854   2.0000                                                             
     3  2  1.50        -5.4423   0.0000                                                             
   Description                                                                                      
     l       E           TYP  RCUT    TYP  RCUT                                                     
     0    -13.7508458     23  1.100                                                                 
     0     -8.2022199     23  1.100                                                                 
     1     -5.2854383     23  1.100                                                                 
     1      1.1560700     23  1.100                                                                 
     2     -5.4423304      7  1.100                                                                 
  local pseudopotential read in
  partial core-charges read in
  partial kinetic energy density read in
  atomic valenz-charges read in
  non local Contribution for L=           0  read in
    real space projection operators read in
  non local Contribution for L=           0  read in
    real space projection operators read in
  non local Contribution for L=           1  read in
    real space projection operators read in
  non local Contribution for L=           1  read in
    real space projection operators read in
    PAW grid and wavefunctions read in
 
   number of l-projection  operators is LMAX  =           4
   number of lm-projection operators is LMMAX =           8
 
 POTCAR:    PAW_PBE O_h 06Feb2004                 
   VRHFIN =O: s2p4                                                                                  
   LEXCH  = PE                                                                                      
   EATOM  =   432.3788 eV,   31.7789 Ry                                                             
                                                                                                    
   TITEL  = PAW_PBE O_h 06Feb2004                                                                   
   LULTRA =        F    use ultrasoft PP ?                                                          
   IUNSCR =        1    unscreen: 0-lin 1-nonlin 2-no                                               
   RPACOR =    0.800    partial core radius                                                         
   POMASS =   16.000; ZVAL   =    6.000    mass and valenz                                          
   RCORE  =    1.100    outmost cutoff radius                                                       
   RWIGS  =    1.400; RWIGS  =    0.741    wigner-seitz radius (au A)                               
   ENMAX  =  700.000; ENMIN  =  500.000 eV                                                          
   ICORE  =        2    local potential                                                             
   LCOR   =        T    correct aug charges                                                         
   LPAW   =        T    paw PP                                                                      
   EAUG   =  888.804                                                                                
   DEXC   =    0.000                                                                                
   RMAX   =    1.128    core radius for proj-oper                                                   
   RAUG   =    1.300    factor for augmentation sphere                                              
   RDEP   =    1.125    radius for radial grids                                                     
   RDEPT  =    1.088    core radius for aug-charge                                                  
                                                                                                    
   Atomic configuration                                                                             
    4 entries                                                                                       
     n  l   j            E        occ.                                                              
     1  0  0.50      -514.6923   2.0000                                                             
     2  0  0.50       -23.9615   2.0000                                                             
     2  1  0.50        -9.0305   4.0000                                                             
     3  2  1.50        -9.5241   0.0000                                                             
   Description                                                                                      
     l       E           TYP  RCUT    TYP  RCUT                                                     
     0    -23.9615319     23  1.100                                                                 
     0    -25.3221145     23  1.100                                                                 
     1     -9.0304911     23  1.100                                                                 
     1     -5.4802209     23  1.100                                                                 
     2     -9.5240782      7  1.100                                                                 
  local pseudopotential read in
  partial core-charges read in
  partial kinetic energy density read in
  atomic valenz-charges read in
  non local Contribution for L=           0  read in
    real space projection operators read in
  non local Contribution for L=           0  read in
    real space projection operators read in
  non local Contribution for L=           1  read in
    real space projection operators read in
  non local Contribution for L=           1  read in
    real space projection operators read in
    PAW grid and wavefunctions read in
 
   number of l-projection  operators is LMAX  =           4
   number of lm-projection operators is LMMAX =           8
 
 -----------------------------------------------------------------------------
|                                                                             |
|               ----> ADVICE to this user running VASP <----                  |
|                                                                             |
|     You have a (more or less) 'large supercell' and for larger cells it     |
|     might be more efficient to use real-space projection operators.         |
|     Therefore, try LREAL= Auto in the INCAR file.                           |
|     Mind: For very accurate calculation, you might also keep the            |
|     reciprocal projection scheme (i.e. LREAL=.FALSE.).                      |
|                                                                             |
 -----------------------------------------------------------------------------

 -----------------------------------------------------------------------------
|                                                                             |
|               ----> ADVICE to this user running VASP <----                  |
|                                                                             |
|     You enforced a specific xc type in the INCAR file but a different       |
|     type was found in the POTCAR file.                                      |
|     I HOPE YOU KNOW WHAT YOU ARE DOING!                                     |
|                                                                             |
 -----------------------------------------------------------------------------

  PAW_PBE C_h 06Feb2004                 :
 energy of atom  1       EATOM= -147.1560
 kinetic energy error for atom=    0.0031 (will be added to EATOM!!)
  PAW_PBE O_h 06Feb2004                 :
 energy of atom  2       EATOM= -432.3788
 kinetic energy error for atom=    0.0171 (will be added to EATOM!!)
 
 
 POSCAR:  C  O
  positions in cartesian coordinates
  No initial velocities read in
 exchange correlation table for  LEXCH =       44
   RHO(1)=    0.500       N(1)  =     2000
   RHO(2)=  100.500       N(2)  =     4000
 


--------------------------------------------------------------------------------------------------------


 ion  position               nearest neighbor table
   1  0.972  0.000  0.001-  50 1.42   2 1.42  42 1.42
   2  0.039  0.134  0.000-   5 1.42   7 1.42   1 1.42
   3  0.172  0.000  0.000-  42 1.42  44 1.42   4 1.42
   4  0.239  0.134  0.000-   7 1.42   3 1.42  23 1.42
   5  0.972  0.200  0.000-   6 1.42   2 1.42  34 1.42
   6  0.039  0.334  0.000-   5 1.42  21 1.42  11 1.42
   7  0.172  0.200  0.000-   8 1.42   2 1.42   4 1.42
   8  0.239  0.334  0.000-  13 1.42   7 1.42  21 1.42
   9  0.372  0.000  0.000-  10 1.42  44 1.42  46 1.42
  10  0.439  0.134  0.000-  27 1.42   9 1.42  23 1.42
  11  0.972  0.400  0.001-  12 1.42  36 1.42   6 1.42
  12  0.039  0.534  0.001-  25 1.42  11 1.42  17 1.42
  13  0.372  0.400  0.000-   8 1.42  14 1.42  24 1.42
  14  0.439  0.534  0.000-  13 1.42  29 1.42  19 1.42
  15  0.572  0.000  0.001-  46 1.42  16 1.42  48 1.42
  16  0.639  0.134  0.001-  15 1.42  35 1.42  27 1.42
  17  0.972  0.600  0.001-  38 1.42  18 1.42  12 1.42
  18  0.039  0.734  0.001-  43 1.42  41 1.42  17 1.42
  19  0.572  0.600  0.000-  14 1.42  20 1.42  32 1.42
  20  0.639  0.734  0.001-  49 1.42  19 1.42  47 1.42
  21  0.172  0.400  0.000-  22 1.42   8 1.42   6 1.42
  22  0.239  0.534  0.000-  21 1.42  29 1.42  25 1.42
  23  0.372  0.200  0.000-  10 1.42   4 1.42  24 1.42
  24  0.439  0.334  0.000-  13 1.42  31 1.42  23 1.42
  25  0.172  0.600  0.001-  26 1.42  12 1.42  22 1.42
  26  0.239  0.734  0.001-  25 1.42  45 1.42  43 1.42
  27  0.572  0.200  0.000-  10 1.42  28 1.42  16 1.42
  28  0.639  0.334  0.000-  27 1.42  37 1.42  31 1.42
  29  0.372  0.600  0.000-  22 1.42  14 1.42  30 1.42
  30  0.439  0.734  0.000-  47 1.42  29 1.42  45 1.42
  31  0.572  0.400  0.000-  32 1.42  28 1.42  24 1.42
  32  0.639  0.534  0.000-  31 1.42  39 1.42  19 1.42
  33  0.772  0.000  0.001-  34 1.42  48 1.42  50 1.42
  34  0.839  0.134  0.001-  33 1.42   5 1.42  35 1.42
  35  0.772  0.200  0.001-  36 1.42  16 1.42  34 1.42
  36  0.839  0.334  0.001-  35 1.42  11 1.42  37 1.42
  37  0.772  0.400  0.001-  28 1.42  38 1.42  36 1.42
  38  0.839  0.534  0.001-  17 1.42  37 1.42  39 1.42
  39  0.772  0.600  0.001-  40 1.42  38 1.42  32 1.42
  40  0.839  0.734  0.001-  39 1.42  49 1.42  41 1.42
  41  0.972  0.800  0.001-  18 1.42  42 1.42  40 1.42
  42  0.039  0.934  0.001-   3 1.42  41 1.42   1 1.42
  43  0.172  0.800  0.001-  18 1.42  44 1.42  26 1.42
  44  0.239  0.934  0.001-   9 1.42  43 1.42   3 1.42
  45  0.372  0.800  0.001-  26 1.42  46 1.42  30 1.42
  46  0.439  0.934  0.001-  15 1.42  45 1.42   9 1.42
  47  0.572  0.800  0.001-  30 1.42  48 1.42  20 1.42
  48  0.639  0.934  0.001-  47 1.42  33 1.42  15 1.42
  49  0.772  0.800  0.001-  50 1.42  20 1.42  40 1.42
  50  0.839  0.934  0.001-  49 1.42   1 1.42  33 1.42
  51  0.373  0.251  0.356-  52 1.18  53 1.18
  52  0.421  0.189  0.359-  51 1.18
  53  0.325  0.313  0.354-  51 1.18
 
  LATTYP: Found a hexagonal cell.
 ALAT       =    12.3250000000
 C/A-ratio  =     2.0283975659
  
  Lattice vectors:
  
 A1 = (  12.3250000000,   0.0000000000,   0.0000000000)
 A2 = (  -6.1625000000,  10.6737631016,   0.0000000000)
 A3 = (   0.0000000000,   0.0000000000,  25.0000000000)


Analysis of symmetry for initial positions (statically):
=====================================================================
 Subroutine PRICEL returns:
 Original cell was already a primitive cell.
 

 Routine SETGRP: Setting up the symmetry group for a 
 hexagonal supercell.


 Subroutine GETGRP returns: Found  1 space group operations
 (whereof  1 operations were pure point group operations)
 out of a pool of 24 trial point group operations.


The static configuration has the point symmetry C_1 .


Analysis of symmetry for dynamics (positions and initial velocities):
=====================================================================
 Subroutine PRICEL returns:
 Original cell was already a primitive cell.
 

 Routine SETGRP: Setting up the symmetry group for a 
 hexagonal supercell.


 Subroutine GETGRP returns: Found  1 space group operations
 (whereof  1 operations were pure point group operations)
 out of a pool of 24 trial point group operations.


The dynamic configuration has the point symmetry C_1 .


 Subroutine INISYM returns: Found  1 space group operations
 (whereof  1 operations are pure point group operations),
 and found     1 'primitive' translations


----------------------------------------------------------------------------------------

                                     Primitive cell                                     

  volume of cell :    3288.8533

  direct lattice vectors                    reciprocal lattice vectors
    12.325000000  0.000000000  0.000000000     0.081135903  0.046843835  0.000000000
    -6.162500000 10.673763102  0.000000000     0.000000000  0.093687670  0.000000000
     0.000000000  0.000000000 25.000000000     0.000000000  0.000000000  0.040000000

  length of vectors
    12.325000000 12.325000000 25.000000000     0.093687670  0.093687670  0.040000000

  position of ions in fractional coordinates (direct lattice)
     0.972450841  0.000320818  0.000566711
     0.039118382  0.133659505  0.000440173
     0.172443627  0.000295449  0.000499628
     0.239096278  0.133647917  0.000256468
     0.972452058  0.200322012  0.000485219
     0.039128360  0.333643771  0.000444150
     0.172451764  0.200354552  0.000219167
     0.239124359  0.333665720  0.000072260
     0.372465565  0.000324403  0.000453913
     0.439137473  0.133619939  0.000258338
     0.972449824  0.400309362  0.000547611
     0.039124981  0.533636789  0.000573410
     0.372416176  0.400329481  0.000000000
     0.439099602  0.533638981  0.000232414
     0.572443676  0.000312125  0.000559580
     0.639110207  0.133631751  0.000547275
     0.972452703  0.600305653  0.000640289
     0.039124495  0.733640359  0.000654513
     0.572433471  0.600306242  0.000402895
     0.639111888  0.733641879  0.000527905
     0.172454630  0.400318228  0.000289045
     0.239120185  0.533636548  0.000378509
     0.372459750  0.200295993  0.000088997
     0.439107096  0.333673419  0.000055762
     0.172452155  0.600311506  0.000524340
     0.239123371  0.733638574  0.000575129
     0.572431082  0.200289171  0.000413296
     0.639112773  0.333618630  0.000462376
     0.372439808  0.600308022  0.000362844
     0.439116090  0.733637858  0.000494190
     0.572469358  0.400320504  0.000339918
     0.639119408  0.533650873  0.000459610
     0.772445723  0.000315427  0.000596161
     0.839116277  0.133640203  0.000575306
     0.772440513  0.200307432  0.000581033
     0.839120241  0.333635728  0.000585467
     0.772446320  0.400298367  0.000582978
     0.839118980  0.533633964  0.000621100
     0.772456143  0.600308173  0.000595712
     0.839115033  0.733643180  0.000631512
     0.972455313  0.800305582  0.000652233
     0.039114714  0.933643289  0.000598051
     0.172457971  0.800312211  0.000623372
     0.239134551  0.933647193  0.000544850
     0.372451396  0.800316674  0.000551399
     0.439124489  0.933644769  0.000541430
     0.572441101  0.800310054  0.000534535
     0.639115067  0.933638985  0.000587644
     0.772445098  0.800313187  0.000602062
     0.839116614  0.933644338  0.000606830
     0.373021009  0.251226878  0.356359487
     0.420879805  0.189313152  0.358936362
     0.325156981  0.313167186  0.353981292

  ion indices of the primitive-cell ions
   primitive index   ion index
                 1           1
                 2           2
                 3           3
                 4           4
                 5           5
                 6           6
                 7           7
                 8           8
                 9           9
                10          10
                11          11
                12          12
                13          13
                14          14
                15          15
                16          16
                17          17
                18          18
                19          19
                20          20
                21          21
                22          22
                23          23
                24          24
                25          25
                26          26
                27          27
                28          28
                29          29
                30          30
                31          31
                32          32
                33          33
                34          34
                35          35
                36          36
                37          37
                38          38
                39          39
                40          40
                41          41
                42          42
                43          43
                44          44
                45          45
                46          46
                47          47
                48          48
                49          49
                50          50
                51          51
                52          52
                53          53

----------------------------------------------------------------------------------------

 
 
 KPOINTS: auto                                    

Automatic generation of k-mesh.
 Grid dimensions read from file:
 generate k-points for:    1    1    1

 Generating k-lattice:

  Cartesian coordinates                     Fractional coordinates (reciprocal lattice)
     0.081135903  0.046843835  0.000000000     1.000000000 -0.000000000  0.000000000
     0.000000000  0.093687670  0.000000000     0.000000000  1.000000000  0.000000000
     0.000000000  0.000000000  0.040000000     0.000000000  0.000000000  1.000000000

  Length of vectors
     0.093687670  0.093687670  0.040000000

  Shift w.r.t. Gamma in fractional coordinates (k-lattice)
     0.000000000  0.000000000  0.000000000

 
 Subroutine IBZKPT returns following result:
 ===========================================
 
 Found      1 irreducible k-points:
 
 Following reciprocal coordinates:
            Coordinates               Weight
  0.000000  0.000000  0.000000      1.000000
 
 Following cartesian coordinates:
            Coordinates               Weight
  0.000000  0.000000  0.000000      1.000000
 


--------------------------------------------------------------------------------------------------------




 Dimension of arrays:
   k-points           NKPTS =      1   k-points in BZ     NKDIM =      1   number of bands    NBANDS=    136
   number of dos      NEDOS =    301   number of ions     NIONS =     53
   non local maximal  LDIM  =      4   non local SUM 2l+1 LMDIM =      8
   total plane-waves  NPLWV = ******
   max r-space proj   IRMAX =      1   max aug-charges    IRDMAX=  10008
   dimension x,y,z NGX =   128 NGY =  128 NGZ =  270
   dimension x,y,z NGXF=   256 NGYF=  256 NGZF=  540
   support grid    NGXF=   256 NGYF=  256 NGZF=  540
   ions per type =              51   2
   NGX,Y,Z   is equivalent  to a cutoff of  17.27, 17.27, 17.95 a.u.
   NGXF,Y,Z  is equivalent  to a cutoff of  34.53, 34.53, 35.91 a.u.

 SYSTEM =  unknown system                          
 POSCAR =   C  O                                   

 Startparameter for this run:
   NWRITE =      2    write-flag & timer
   PREC   = accura    normal or accurate (medium, high low for compatibility)
   ISTART =      0    job   : 0-new  1-cont  2-samecut
   ICHARG =      2    charge: 1-file 2-atom 10-const
   ISPIN  =      1    spin polarized calculation?
   LNONCOLLINEAR =      F non collinear calculations
   LSORBIT =      F    spin-orbit coupling
   INIWAV =      1    electr: 0-lowe 1-rand  2-diag
   LASPH  =      T    aspherical Exc in radial PAW
 Electronic Relaxation 1
   ENCUT  = 1000.0 eV  73.50 Ry    8.57 a.u.  31.78 31.78 64.46*2*pi/ulx,y,z
   ENINI  = 1000.0     initial cutoff
   ENAUG  =  946.8 eV  augmentation charge cutoff
   NELM   =     60;   NELMIN=  2; NELMDL= -5     # of ELM steps 
   EDIFF  = 0.1E-06   stopping-criterion for ELM
   LREAL  =      F    real-space projection
   NLSPLINE    = F    spline interpolate recip. space projectors
   LCOMPAT=      F    compatible to vasp.4.4
   GGA_COMPAT  = T    GGA compatible to vasp.4.4-vasp.4.6
   LMAXPAW     = -100 max onsite density
   LMAXMIX     =    2 max onsite mixed and CHGCAR
   VOSKOWN=      0    Vosko Wilk Nusair interpolation
   ROPT   =    0.00000   0.00000
 Ionic relaxation
   EDIFFG = 0.1E-05   stopping-criterion for IOM
   NSW    =      0    number of steps for IOM
   NBLOCK =      1;   KBLOCK =      1    inner block; outer block 
   IBRION =     -1    ionic relax: 0-MD 1-quasi-New 2-CG
   NFREE  =      0    steps in history (QN), initial steepest desc. (CG)
   ISIF   =      0    stress and relaxation
   IWAVPR =     10    prediction:  0-non 1-charg 2-wave 3-comb
   ISYM   =      2    0-nonsym 1-usesym 2-fastsym
   LCORR  =      T    Harris-Foulkes like correction to forces

   POTIM  = 0.5000    time-step for ionic-motion
   TEIN   =    0.0    initial temperature
   TEBEG  =    0.0;   TEEND  =   0.0 temperature during run
   SMASS  =  -3.00    Nose mass-parameter (am)
   estimated Nose-frequenzy (Omega)   =  0.10E-29 period in steps = 0.13E+47 mass=  -0.347E-26a.u.
   SCALEE = 1.0000    scale energy and forces
   NPACO  =    256;   APACO  = 16.0  distance and # of slots for P.C.
   PSTRESS=    0.0 pullay stress

  Mass of Ions in am
   POMASS =  12.01 16.00
  Ionic Valenz
   ZVAL   =   4.00  6.00
  Atomic Wigner-Seitz radii
   RWIGS  =  -1.00 -1.00
  virtual crystal weights 
   VCA    =   1.00  1.00
   NELECT =     216.0000    total number of electrons
   NUPDOWN=      -1.0000    fix difference up-down

 DOS related values:
   EMIN   =  10.00;   EMAX   =-10.00  energy-range for DOS
   EFERMI =   0.00
   ISMEAR =     0;   SIGMA  =   0.01  broadening in eV -4-tet -1-fermi 0-gaus

 Electronic relaxation 2 (details)
   IALGO  =     58    algorithm
   LDIAG  =      T    sub-space diagonalisation (order eigenvalues)
   LSUBROT=      F    optimize rotation matrix (better conditioning)
   TURBO    =      0    0=normal 1=particle mesh
   IRESTART =      0    0=no restart 2=restart with 2 vectors
   NREBOOT  =      0    no. of reboots
   NMIN     =      0    reboot dimension
   EREF     =   0.00    reference energy to select bands
   IMIX   =      4    mixing-type and parameters
     AMIX     =   0.40;   BMIX     =  1.00
     AMIX_MAG =   1.60;   BMIX_MAG =  1.00
     AMIN     =   0.10
     WC   =   100.;   INIMIX=   1;  MIXPRE=   1;  MAXMIX= -45

 Intra band minimization:
   WEIMIN = 0.0000     energy-eigenvalue tresh-hold
   EBREAK =  0.18E-09  absolut break condition
   DEPER  =   0.30     relativ break condition  

   TIME   =   0.40     timestep for ELM

  volume/ion in A,a.u.               =      62.05       418.76
  Fermi-wavevector in a.u.,A,eV,Ry     =   0.660508  1.248179  5.935820  0.436270
  Thomas-Fermi vector in A             =   1.732977
 
 Write flags
   LWAVE        =      F    write WAVECAR
   LDOWNSAMPLE  =      F    k-point downsampling of WAVECAR
   LCHARG       =      T    write CHGCAR
   LVTOT        =      F    write LOCPOT, total local potential
   LVHAR        =      F    write LOCPOT, Hartree potential only
   LELF         =      F    write electronic localiz. function (ELF)
   LORBIT       =      0    0 simple, 1 ext, 2 COOP (PROOUT), +10 PAW based schemes


 Dipole corrections
   LMONO  =      F    monopole corrections only (constant potential shift)
   LDIPOL =      F    correct potential (dipole corrections)
   IDIPOL =      0    1-x, 2-y, 3-z, 4-all directions 
   EPSILON=  1.0000000 bulk dielectric constant

 Exchange correlation treatment:
   GGA     =    ML    GGA type
   LEXCH   =    44    internal setting for exchange type
   VOSKOWN=      0    Vosko Wilk Nusair interpolation
   LHFCALC =     F    Hartree Fock is set to
   LHFONE  =     F    Hartree Fock one center treatment
   AEXX    =    0.0000 exact exchange contribution

 vdW DFT:
   LUSE_VDW   =     T    switch on vdW DFT
   Zab_VDW    =******    correlation parameter
   PARAM1     =0.1234
   PARAM2     =1.0000
   PARAM3     =0.0000
   -- rVV10 --
   BPARAM     = 6.3000
   CPARAM     = 0.0093

 Linear response parameters
   LEPSILON=     F    determine dielectric tensor
   LRPA    =     F    only Hartree local field effects (RPA)
   LNABLA  =     F    use nabla operator in PAW spheres
   LVEL    =     F    velocity operator in full k-point grid
   LINTERFAST=   F  fast interpolation
   KINTER  =     0    interpolate to denser k-point grid
   CSHIFT  =0.1000    complex shift for real part using Kramers Kronig
   OMEGAMAX=  -1.0    maximum frequency
   DEG_THRESHOLD= 0.2000000E-02 threshold for treating states as degnerate
   RTIME   =   -0.100 relaxation time in fs
  (WPLASMAI=    0.000 imaginary part of plasma frequency in eV, 0.658/RTIME)
   DFIELD  = 0.0000000 0.0000000 0.0000000 field for delta impulse in time
 
 Orbital magnetization related:
   ORBITALMAG=     F  switch on orbital magnetization
   LCHIMAG   =     F  perturbation theory with respect to B field
   DQ        =  0.001000  dq finite difference perturbation B field
   LLRAUG    =     F  two centre corrections for induced B field



--------------------------------------------------------------------------------------------------------


 Static calculation
 charge density and potential will be updated during run
 non-spin polarized calculation
 Conjugate gradient for all bands (Freysoldt, et al. PRB 79, 241103 (2009))
 preconditioned conjugated gradient                                        
 perform sub-space diagonalisation
    before iterative eigenvector-optimisation
 modified Broyden-mixing scheme, WC =      100.0
 initial mixing is a Kerker type mixing with AMIX =  0.4000 and BMIX =      1.0000
 Hartree-type preconditioning will be used
 using additional bands           28
 reciprocal scheme for non local part
 use partial core corrections
 no Harris-corrections to forces 
 use gradient corrections 
 use of overlap-Matrix (Vanderbilt PP)
 Gauss-broadening in eV      SIGMA  =   0.01


--------------------------------------------------------------------------------------------------------


  energy-cutoff  :     1000.00
  volume of cell :     3288.85
      direct lattice vectors                 reciprocal lattice vectors
    12.325000000  0.000000000  0.000000000     0.081135903  0.046843835  0.000000000
    -6.162500000 10.673763102  0.000000000     0.000000000  0.093687670  0.000000000
     0.000000000  0.000000000 25.000000000     0.000000000  0.000000000  0.040000000

  length of vectors
    12.325000000 12.325000000 25.000000000     0.093687670  0.093687670  0.040000000


 
 k-points in units of 2pi/SCALE and weight: auto                                    
   0.00000000  0.00000000  0.00000000       1.000
 
 k-points in reciprocal lattice and weights: auto                                    
   0.00000000  0.00000000  0.00000000       1.000
 
 position of ions in fractional coordinates (direct lattice) 
   0.97245084  0.00032082  0.00056671
   0.03911838  0.13365950  0.00044017
   0.17244363  0.00029545  0.00049963
   0.23909628  0.13364792  0.00025647
   0.97245206  0.20032201  0.00048522
   0.03912836  0.33364377  0.00044415
   0.17245176  0.20035455  0.00021917
   0.23912436  0.33366572  0.00007226
   0.37246557  0.00032440  0.00045391
   0.43913747  0.13361994  0.00025834
   0.97244982  0.40030936  0.00054761
   0.03912498  0.53363679  0.00057341
   0.37241618  0.40032948  0.00000000
   0.43909960  0.53363898  0.00023241
   0.57244368  0.00031213  0.00055958
   0.63911021  0.13363175  0.00054727
   0.97245270  0.60030565  0.00064029
   0.03912449  0.73364036  0.00065451
   0.57243347  0.60030624  0.00040289
   0.63911189  0.73364188  0.00052791
   0.17245463  0.40031823  0.00028904
   0.23912018  0.53363655  0.00037851
   0.37245975  0.20029599  0.00008900
   0.43910710  0.33367342  0.00005576
   0.17245216  0.60031151  0.00052434
   0.23912337  0.73363857  0.00057513
   0.57243108  0.20028917  0.00041330
   0.63911277  0.33361863  0.00046238
   0.37243981  0.60030802  0.00036284
   0.43911609  0.73363786  0.00049419
   0.57246936  0.40032050  0.00033992
   0.63911941  0.53365087  0.00045961
   0.77244572  0.00031543  0.00059616
   0.83911628  0.13364020  0.00057531
   0.77244051  0.20030743  0.00058103
   0.83912024  0.33363573  0.00058547
   0.77244632  0.40029837  0.00058298
   0.83911898  0.53363396  0.00062110
   0.77245614  0.60030817  0.00059571
   0.83911503  0.73364318  0.00063151
   0.97245531  0.80030558  0.00065223
   0.03911471  0.93364329  0.00059805
   0.17245797  0.80031221  0.00062337
   0.23913455  0.93364719  0.00054485
   0.37245140  0.80031667  0.00055140
   0.43912449  0.93364477  0.00054143
   0.57244110  0.80031005  0.00053453
   0.63911507  0.93363899  0.00058764
   0.77244510  0.80031319  0.00060206
   0.83911661  0.93364434  0.00060683
   0.37302101  0.25122688  0.35635949
   0.42087980  0.18931315  0.35893636
   0.32515698  0.31316719  0.35398129
 
 position of ions in cartesian coordinates  (Angst):
  11.98347958  0.00342433  0.01416777
  -0.34154264  1.42664989  0.01100432
   2.12354700  0.00315355  0.01249070
   2.12325634  1.42652621  0.00641170
  10.75098721  2.13818970  0.01213047
  -1.57382270  3.56123457  0.01110375
   0.89078307  2.13853702  0.00547917
   0.89099273  3.56146885  0.00180651
   4.58863896  0.00346260  0.01134782
   4.58893648  1.42622757  0.00645846
   9.51853763  4.27280730  0.01369027
  -2.80632132  5.69591267  0.01433526
   2.12299894  4.27302204  0.00000000
   2.12335237  5.69593607  0.00581036
   7.05344483  0.00333155  0.01398950
   7.05352764  1.42635365  0.01368187
   8.28609598  6.40752033  0.01600723
  -4.03884931  7.83070339  0.01636283
   3.35585531  6.40752662  0.01007237
   3.35598594  7.83071962  0.01319763
  -0.34145776  4.27290193  0.00722612
  -0.34137895  5.69591010  0.00946273
   3.35624236  2.13791198  0.00222492
   3.35573251  3.56155103  0.00139405
  -1.57394684  6.40758280  0.01310850
  -1.57385216  7.83068434  0.01437823
   5.82093107  2.13783916  0.01033241
   5.82114012  3.56096622  0.01155939
   0.89092245  6.40754561  0.00907111
   0.89106251  7.83067670  0.01235474
   4.58870974  4.27292622  0.00849795
   4.58852320  5.69606300  0.01149026
   9.51844972  0.00336679  0.01490402
   9.51855036  1.42644387  0.01438264
   8.28593477  2.13803408  0.01452582
   8.28612680  3.56114872  0.01463668
   7.05356221  4.27268994  0.01457444
   7.05362213  5.69588251  0.01552751
   5.82112285  6.40754723  0.01489279
   5.82101669  7.83073350  0.01578780
   7.05362858  8.54227219  0.01630582
  -5.27148792  9.96548729  0.01495127
  -2.80637951  8.54234295  0.01558431
  -2.80626749  9.96552896  0.01362126
  -0.34148805  8.54239058  0.01378498
  -0.34137657  9.96550309  0.01353576
   2.12342586  8.54231992  0.01336337
   2.12354296  9.96544135  0.01469111
   4.58845581  8.54235337  0.01505154
   4.58852904  9.96549848  0.01517076
   3.04929830  2.68153618  8.90898718
   4.02070129  2.02068374  8.97340904
   2.07766701  3.34267235  8.84953231
 


--------------------------------------------------------------------------------------------------------


 k-point   1 :   0.0000 0.0000 0.0000  plane waves:  236157

 maximum and minimum number of plane-waves per node :      8440     8428

 maximum number of plane-waves:    236157
 maximum index in each direction: 
   IXMAX=   31   IYMAX=   31   IZMAX=   64
   IXMIN=  -31   IYMIN=  -31   IZMIN=  -64


 parallel 3D FFT for wavefunctions:
    minimum data exchange during FFTs selected (reduces bandwidth)
 parallel 3D FFT for charge:
    minimum data exchange during FFTs selected (reduces bandwidth)


 total amount of memory used by VASP MPI-rank0   100580. kBytes
=======================================================================

   base      :      30000. kBytes
   nonl-proj :       8229. kBytes
   fftplans  :      18352. kBytes
   grid      :      30208. kBytes
   one-center:          6. kBytes
   wavefun   :      13785. kBytes
 
     INWAV:  cpu time    0.0000: real time    0.0000
 Broyden mixing: mesh for mixing (old mesh)
   NGX = 63   NGY = 63   NGZ =129
  (NGX  =256   NGY  =256   NGZ  =540)
  gives a total of 512001 points

 initial charge density was supplied:
 charge density of overlapping atoms calculated
 number of electron     216.0000000 magnetization 
 keeping initial charge density in first step


--------------------------------------------------------------------------------------------------------


 Maximum index for augmentation-charges          471 (set IRDMAX)


--------------------------------------------------------------------------------------------------------


 First call to EWALD:  gamma=   0.119
 Maximum number of real-space cells 4x 4x 2
 Maximum number of reciprocal cells 2x 2x 4

    FEWALD:  cpu time    0.0026: real time    0.0026


--------------------------------------- Iteration      1(   1)  ---------------------------------------


vdW kernel read from vdw_kernel.bindat
  0.0000  0.2424  0.5071  0.7962  1.1119  1.4567  1.8333  2.2446  2.6937  3.1842
  3.7199  4.3049  4.9438  5.6415  6.4036  7.2358  8.1446  9.1372 10.2212 11.4050
 12.6979 14.1099 15.6519 17.3360 19.1751 21.1837 23.3773 25.7729 28.3892 31.2465
 34.3669 37.7748 41.4965 45.5611 50.0000
 
    POTLOK:  cpu time    4.5572: real time    4.5909
    SETDIJ:  cpu time    0.0544: real time    0.0546
    TRIAL :  cpu time    2.1305: real time    2.1524
    CORREC:  cpu time    0.0007: real time    0.0007
    --------------------------------------------
      LOOP:  cpu time    6.7495: real time    6.8076

 eigenvalue-minimisations  :   296
 total energy-change (2. order) : 0.2791355E+04  (-0.1022797E+05)
 number of electron     216.0000000 magnetization 
 augmentation part      216.0000000 magnetization 

 Free energy of the ion-electron system (eV)
  ---------------------------------------------------
  alpha Z        PSCENC =        47.94900195
  Ewald energy   TEWEN  =     40970.05347293
  -Hartree energ DENC   =    -47039.28430944
  -exchange      EXHF   =         0.00000000
  -V(xc)+E(xc)   XCENC  =       352.72920122
  PAW double counting   =      6601.42964284    -6299.49404826
  entropy T*S    EENTRO =        -0.00000000
  eigenvalues    EBANDS =      -399.44034425
  atomic energy  EATOM  =      8557.41276814
  ---------------------------------------------------
  free energy    TOTEN  =      2791.35538513 eV

  energy without entropy =     2791.35538513  energy(sigma->0) =     2791.35538513


--------------------------------------------------------------------------------------------------------




--------------------------------------- Iteration      1(   2)  ---------------------------------------


    TRIAL :  cpu time    2.9302: real time    2.9612
    CORREC:  cpu time    0.0001: real time    0.0001
    --------------------------------------------
      LOOP:  cpu time    2.9745: real time    3.0094

 eigenvalue-minimisations  :   456
 total energy-change (2. order) :-0.2307149E+04  (-0.2153398E+04)
 number of electron     216.0000000 magnetization 
 augmentation part      216.0000000 magnetization 

 Free energy of the ion-electron system (eV)
  ---------------------------------------------------
  alpha Z        PSCENC =        47.94900195
  Ewald energy   TEWEN  =     40970.05347293
  -Hartree energ DENC   =    -47039.28430944
  -exchange      EXHF   =         0.00000000
  -V(xc)+E(xc)   XCENC  =       352.72920122
  PAW double counting   =      6601.42964284    -6299.49404826
  entropy T*S    EENTRO =        -0.00000000
  eigenvalues    EBANDS =     -2706.58957686
  atomic energy  EATOM  =      8557.41276814
  ---------------------------------------------------
  free energy    TOTEN  =       484.20615252 eV

  energy without entropy =      484.20615252  energy(sigma->0) =      484.20615252


--------------------------------------------------------------------------------------------------------




--------------------------------------- Iteration      1(   3)  ---------------------------------------


    TRIAL :  cpu time    2.3616: real time    2.3830
    CORREC:  cpu time    0.0000: real time    0.0000
    --------------------------------------------
      LOOP:  cpu time    2.4132: real time    2.4365

 eigenvalue-minimisations  :   344
 total energy-change (2. order) :-0.8363425E+03  (-0.8236122E+03)
 number of electron     216.0000000 magnetization 
 augmentation part      216.0000000 magnetization 

 Free energy of the ion-electron system (eV)
  ---------------------------------------------------
  alpha Z        PSCENC =        47.94900195
  Ewald energy   TEWEN  =     40970.05347293
  -Hartree energ DENC   =    -47039.28430944
  -exchange      EXHF   =         0.00000000
  -V(xc)+E(xc)   XCENC  =       352.72920122
  PAW double counting   =      6601.42964284    -6299.49404826
  entropy T*S    EENTRO =        -0.00000000
  eigenvalues    EBANDS =     -3542.93208254
  atomic energy  EATOM  =      8557.41276814
  ---------------------------------------------------
  free energy    TOTEN  =      -352.13635317 eV

  energy without entropy =     -352.13635317  energy(sigma->0) =     -352.13635317


--------------------------------------------------------------------------------------------------------




--------------------------------------- Iteration      1(   4)  ---------------------------------------


    TRIAL :  cpu time    2.3329: real time    2.3651
    CORREC:  cpu time    0.0001: real time    0.0001
    --------------------------------------------
      LOOP:  cpu time    2.3601: real time    2.3963

 eigenvalue-minimisations  :   344
 total energy-change (2. order) :-0.7790309E+02  (-0.7698040E+02)
 number of electron     216.0000000 magnetization 
 augmentation part      216.0000000 magnetization 

 Free energy of the ion-electron system (eV)
  ---------------------------------------------------
  alpha Z        PSCENC =        47.94900195
  Ewald energy   TEWEN  =     40970.05347293
  -Hartree energ DENC   =    -47039.28430944
  -exchange      EXHF   =         0.00000000
  -V(xc)+E(xc)   XCENC  =       352.72920122
  PAW double counting   =      6601.42964284    -6299.49404826
  entropy T*S    EENTRO =        -0.00000000
  eigenvalues    EBANDS =     -3620.83517317
  atomic energy  EATOM  =      8557.41276814
  ---------------------------------------------------
  free energy    TOTEN  =      -430.03944379 eV

  energy without entropy =     -430.03944379  energy(sigma->0) =     -430.03944379


--------------------------------------------------------------------------------------------------------




--------------------------------------- Iteration      1(   5)  ---------------------------------------


    TRIAL :  cpu time    2.3837: real time    2.4052
    CORREC:  cpu time    0.0001: real time    0.0001
    CHARGE:  cpu time    0.1814: real time    0.1836
    --------------------------------------------
      LOOP:  cpu time    2.5908: real time    2.6399

 eigenvalue-minimisations  :   352
 total energy-change (2. order) :-0.2224732E+01  (-0.2210815E+01)
 number of electron     216.0000000 magnetization 
 augmentation part       -0.1488050 magnetization 

 Free energy of the ion-electron system (eV)
  ---------------------------------------------------
  alpha Z        PSCENC =        47.94900195
  Ewald energy   TEWEN  =     40970.05347293
  -Hartree energ DENC   =    -47039.28430944
  -exchange      EXHF   =         0.00000000
  -V(xc)+E(xc)   XCENC  =       352.72920122
  PAW double counting   =      6601.42964284    -6299.49404826
  entropy T*S    EENTRO =        -0.00000000
  eigenvalues    EBANDS =     -3623.05990512
  atomic energy  EATOM  =      8557.41276814
  ---------------------------------------------------
  free energy    TOTEN  =      -432.26417574 eV

  energy without entropy =     -432.26417574  energy(sigma->0) =     -432.26417574


--------------------------------------------------------------------------------------------------------




--------------------------------------- Iteration      1(   6)  ---------------------------------------


    POTLOK:  cpu time    4.2504: real time    4.2813
    SETDIJ:  cpu time    0.0530: real time    0.0532
    TRIAL :  cpu time    1.1697: real time    1.1812
    CORREC:  cpu time    4.7356: real time    4.7718
    CHARGE:  cpu time    0.1820: real time    0.1839
    --------------------------------------------
      LOOP:  cpu time   10.4263: real time   10.5110

 eigenvalue-minimisations  :     0
 total energy-change (2. order) : 0.6347845E+02  (-0.2136728E+02)
 number of electron     216.0000000 magnetization 
 augmentation part       -0.2779960 magnetization 

 Free energy of the ion-electron system (eV)
  ---------------------------------------------------
  alpha Z        PSCENC =        47.94900195
  Ewald energy   TEWEN  =     40970.05347293
  -Hartree energ DENC   =    -48602.32448181
  -exchange      EXHF   =         0.00000000
  -V(xc)+E(xc)   XCENC  =       408.07573839
  PAW double counting   =     52911.72404680   -52633.85204684
  entropy T*S    EENTRO =        -0.00000000
  eigenvalues    EBANDS =     -2027.82422877
  atomic energy  EATOM  =      8557.41276814
  ---------------------------------------------------
  free energy    TOTEN  =      -368.78572921 eV

  energy without entropy =     -368.78572921  energy(sigma->0) =     -368.78572921


--------------------------------------------------------------------------------------------------------




--------------------------------------- Iteration      1(   7)  ---------------------------------------


    POTLOK:  cpu time    4.2961: real time    4.3280
    SETDIJ:  cpu time    0.0530: real time    0.0532
    TRIAL :  cpu time    1.1633: real time    1.1747
    CORREC:  cpu time    4.7669: real time    4.8026
    CHARGE:  cpu time    0.1771: real time    0.1847
    --------------------------------------------
      LOOP:  cpu time   10.5924: real time   10.6834

 eigenvalue-minimisations  :     0
 total energy-change (2. order) :-0.2147759E+02  (-0.2235221E+01)
 number of electron     216.0000000 magnetization 
 augmentation part       -0.3303267 magnetization 

 Free energy of the ion-electron system (eV)
  ---------------------------------------------------
  alpha Z        PSCENC =        47.94900195
  Ewald energy   TEWEN  =     40970.05347293
  -Hartree energ DENC   =    -48007.96625144
  -exchange      EXHF   =         0.00000000
  -V(xc)+E(xc)   XCENC  =       385.77899550
  PAW double counting   =     68642.02903171   -68357.17427100
  entropy T*S    EENTRO =        -0.00000000
  eigenvalues    EBANDS =     -2628.34606409
  atomic energy  EATOM  =      8557.41276814
  ---------------------------------------------------
  free energy    TOTEN  =      -390.26331629 eV

  energy without entropy =     -390.26331629  energy(sigma->0) =     -390.26331629


--------------------------------------------------------------------------------------------------------




--------------------------------------- Iteration      1(   8)  ---------------------------------------


    POTLOK:  cpu time    4.2675: real time    4.2983
    SETDIJ:  cpu time    0.0530: real time    0.0531
    TRIAL :  cpu time    1.1628: real time    1.1747
    CORREC:  cpu time    4.7432: real time    4.7801
    CHARGE:  cpu time    0.1817: real time    0.1836
    --------------------------------------------
      LOOP:  cpu time   10.4588: real time   10.5473

 eigenvalue-minimisations  :     0
 total energy-change (2. order) :-0.2231564E+01  (-0.6522648E+00)
 number of electron     216.0000000 magnetization 
 augmentation part       -0.3541024 magnetization 

 Free energy of the ion-electron system (eV)
  ---------------------------------------------------
  alpha Z        PSCENC =        47.94900195
  Ewald energy   TEWEN  =     40970.05347293
  -Hartree energ DENC   =    -47977.18747906
  -exchange      EXHF   =         0.00000000
  -V(xc)+E(xc)   XCENC  =       385.20905759
  PAW double counting   =     73937.53637712   -73651.53300359
  entropy T*S    EENTRO =        -0.00000000
  eigenvalues    EBANDS =     -2661.93507575
  atomic energy  EATOM  =      8557.41276814
  ---------------------------------------------------
  free energy    TOTEN  =      -392.49488067 eV

  energy without entropy =     -392.49488067  energy(sigma->0) =     -392.49488067


--------------------------------------------------------------------------------------------------------




--------------------------------------- Iteration      1(   9)  ---------------------------------------


    POTLOK:  cpu time    4.2842: real time    4.3161
    SETDIJ:  cpu time    0.0529: real time    0.0531
    TRIAL :  cpu time    1.1608: real time    1.1730
    CORREC:  cpu time    4.7404: real time    4.7778
    CHARGE:  cpu time    0.1793: real time    0.1811
    --------------------------------------------
      LOOP:  cpu time   10.4772: real time   10.5625

 eigenvalue-minimisations  :     0
 total energy-change (2. order) :-0.6525168E+00  (-0.2691636E+00)
 number of electron     216.0000000 magnetization 
 augmentation part       -0.3637642 magnetization 

 Free energy of the ion-electron system (eV)
  ---------------------------------------------------
  alpha Z        PSCENC =        47.94900195
  Ewald energy   TEWEN  =     40970.05347293
  -Hartree energ DENC   =    -47992.55124048
  -exchange      EXHF   =         0.00000000
  -V(xc)+E(xc)   XCENC  =       385.65301645
  PAW double counting   =     78422.81878381   -78136.33387248
  entropy T*S    EENTRO =        -0.00000000
  eigenvalues    EBANDS =     -2648.14932781
  atomic energy  EATOM  =      8557.41276814
  ---------------------------------------------------
  free energy    TOTEN  =      -393.14739748 eV

  energy without entropy =     -393.14739748  energy(sigma->0) =     -393.14739748


--------------------------------------------------------------------------------------------------------




--------------------------------------- Iteration      1(  10)  ---------------------------------------


    POTLOK:  cpu time    4.2801: real time    4.3106
    SETDIJ:  cpu time    0.0530: real time    0.0532
    TRIAL :  cpu time    1.1793: real time    1.1908
    CORREC:  cpu time    4.7676: real time    4.8237
    CHARGE:  cpu time    0.1815: real time    0.1834
    --------------------------------------------
      LOOP:  cpu time   10.4984: real time   10.6024

 eigenvalue-minimisations  :     0
 total energy-change (2. order) :-0.2682870E+00  (-0.1278268E+00)
 number of electron     216.0000000 magnetization 
 augmentation part       -0.3605248 magnetization 

 Free energy of the ion-electron system (eV)
  ---------------------------------------------------
  alpha Z        PSCENC =        47.94900195
  Ewald energy   TEWEN  =     40970.05347293
  -Hartree energ DENC   =    -47987.43915366
  -exchange      EXHF   =         0.00000000
  -V(xc)+E(xc)   XCENC  =       385.56901634
  PAW double counting   =     80389.56708506   -80102.76315481
  entropy T*S    EENTRO =        -0.00000000
  eigenvalues    EBANDS =     -2653.76472049
  atomic energy  EATOM  =      8557.41276814
  ---------------------------------------------------
  free energy    TOTEN  =      -393.41568453 eV

  energy without entropy =     -393.41568453  energy(sigma->0) =     -393.41568453


--------------------------------------------------------------------------------------------------------




--------------------------------------- Iteration      1(  11)  ---------------------------------------


    POTLOK:  cpu time    4.2678: real time    4.3117
    SETDIJ:  cpu time    0.0532: real time    0.0534
    TRIAL :  cpu time    1.1660: real time    1.1778
    CORREC:  cpu time    4.7367: real time    4.7735
    CHARGE:  cpu time    0.1823: real time    0.1842
    --------------------------------------------
      LOOP:  cpu time   10.4232: real time   10.5181

 eigenvalue-minimisations  :     0
 total energy-change (2. order) :-0.1270275E+00  (-0.4997283E-01)
 number of electron     216.0000000 magnetization 
 augmentation part       -0.3572216 magnetization 

 Free energy of the ion-electron system (eV)
  ---------------------------------------------------
  alpha Z        PSCENC =        47.94900195
  Ewald energy   TEWEN  =     40970.05347293
  -Hartree energ DENC   =    -47977.90250533
  -exchange      EXHF   =         0.00000000
  -V(xc)+E(xc)   XCENC  =       385.46975859
  PAW double counting   =     80436.77528770   -80149.91024719
  entropy T*S    EENTRO =        -0.00000000
  eigenvalues    EBANDS =     -2663.39024881
  atomic energy  EATOM  =      8557.41276814
  ---------------------------------------------------
  free energy    TOTEN  =      -393.54271201 eV

  energy without entropy =     -393.54271201  energy(sigma->0) =     -393.54271201


--------------------------------------------------------------------------------------------------------




--------------------------------------- Iteration      1(  12)  ---------------------------------------


    POTLOK:  cpu time    4.2571: real time    4.2869
    SETDIJ:  cpu time    0.0531: real time    0.0533
    TRIAL :  cpu time    1.1615: real time    1.1731
    CORREC:  cpu time    4.7272: real time    4.7625
    CHARGE:  cpu time    0.1817: real time    0.1836
    --------------------------------------------
      LOOP:  cpu time   10.4085: real time   10.4977

 eigenvalue-minimisations  :     0
 total energy-change (2. order) :-0.4980275E-01  (-0.1489934E-01)
 number of electron     216.0000000 magnetization 
 augmentation part       -0.3562884 magnetization 

 Free energy of the ion-electron system (eV)
  ---------------------------------------------------
  alpha Z        PSCENC =        47.94900195
  Ewald energy   TEWEN  =     40970.05347293
  -Hartree energ DENC   =    -47974.03412227
  -exchange      EXHF   =         0.00000000
  -V(xc)+E(xc)   XCENC  =       385.36407297
  PAW double counting   =     79836.90092764   -79550.10737031
  entropy T*S    EENTRO =        -0.00000000
  eigenvalues    EBANDS =     -2667.13126581
  atomic energy  EATOM  =      8557.41276814
  ---------------------------------------------------
  free energy    TOTEN  =      -393.59251476 eV

  energy without entropy =     -393.59251476  energy(sigma->0) =     -393.59251476


--------------------------------------------------------------------------------------------------------




--------------------------------------- Iteration      1(  13)  ---------------------------------------


    POTLOK:  cpu time    4.2499: real time    4.2865
    SETDIJ:  cpu time    0.0532: real time    0.0534
    TRIAL :  cpu time    1.1629: real time    1.1745
    CORREC:  cpu time    4.7558: real time    4.8173
    CHARGE:  cpu time    0.1820: real time    0.1841
    --------------------------------------------
      LOOP:  cpu time   10.4429: real time   10.5915

 eigenvalue-minimisations  :     0
 total energy-change (2. order) :-0.1488546E-01  (-0.4422698E-02)
 number of electron     216.0000000 magnetization 
 augmentation part       -0.3559229 magnetization 

 Free energy of the ion-electron system (eV)
  ---------------------------------------------------
  alpha Z        PSCENC =        47.94900195
  Ewald energy   TEWEN  =     40970.05347293
  -Hartree energ DENC   =    -47974.08182590
  -exchange      EXHF   =         0.00000000
  -V(xc)+E(xc)   XCENC  =       385.33252788
  PAW double counting   =     79347.04769675   -79060.32254197
  entropy T*S    EENTRO =        -0.00000000
  eigenvalues    EBANDS =     -2666.99850001
  atomic energy  EATOM  =      8557.41276814
  ---------------------------------------------------
  free energy    TOTEN  =      -393.60740023 eV

  energy without entropy =     -393.60740023  energy(sigma->0) =     -393.60740023


--------------------------------------------------------------------------------------------------------




--------------------------------------- Iteration      1(  14)  ---------------------------------------


    POTLOK:  cpu time    4.2616: real time    4.2918
    SETDIJ:  cpu time    0.0531: real time    0.0532
    TRIAL :  cpu time    1.1610: real time    1.1734
    CORREC:  cpu time    4.7386: real time    4.7815
    CHARGE:  cpu time    0.1818: real time    0.1839
    --------------------------------------------
      LOOP:  cpu time   10.4704: real time   10.5617

 eigenvalue-minimisations  :     0
 total energy-change (2. order) :-0.4419470E-02  (-0.1566080E-02)
 number of electron     216.0000000 magnetization 
 augmentation part       -0.3562319 magnetization 

 Free energy of the ion-electron system (eV)
  ---------------------------------------------------
  alpha Z        PSCENC =        47.94900195
  Ewald energy   TEWEN  =     40970.05347293
  -Hartree energ DENC   =    -47974.02153551
  -exchange      EXHF   =         0.00000000
  -V(xc)+E(xc)   XCENC  =       385.30788526
  PAW double counting   =     79142.56217109   -78855.86927835
  entropy T*S    EENTRO =        -0.00000000
  eigenvalues    EBANDS =     -2667.00630522
  atomic energy  EATOM  =      8557.41276814
  ---------------------------------------------------
  free energy    TOTEN  =      -393.61181970 eV

  energy without entropy =     -393.61181970  energy(sigma->0) =     -393.61181970


--------------------------------------------------------------------------------------------------------




--------------------------------------- Iteration      1(  15)  ---------------------------------------


    POTLOK:  cpu time    4.2639: real time    4.2980
    SETDIJ:  cpu time    0.0528: real time    0.0530
    TRIAL :  cpu time    1.1610: real time    1.1722
    CORREC:  cpu time    4.7257: real time    4.7647
    CHARGE:  cpu time    0.1815: real time    0.1833
    --------------------------------------------
      LOOP:  cpu time   10.4213: real time   10.5088

 eigenvalue-minimisations  :     0
 total energy-change (2. order) :-0.1564212E-02  (-0.7795629E-03)
 number of electron     216.0000000 magnetization 
 augmentation part       -0.3562904 magnetization 

 Free energy of the ion-electron system (eV)
  ---------------------------------------------------
  alpha Z        PSCENC =        47.94900195
  Ewald energy   TEWEN  =     40970.05347293
  -Hartree energ DENC   =    -47973.69633891
  -exchange      EXHF   =         0.00000000
  -V(xc)+E(xc)   XCENC  =       385.27871512
  PAW double counting   =     79059.04446952   -78772.35993311
  entropy T*S    EENTRO =        -0.00000000
  eigenvalues    EBANDS =     -2667.29553956
  atomic energy  EATOM  =      8557.41276814
  ---------------------------------------------------
  free energy    TOTEN  =      -393.61338391 eV

  energy without entropy =     -393.61338391  energy(sigma->0) =     -393.61338391


--------------------------------------------------------------------------------------------------------




--------------------------------------- Iteration      1(  16)  ---------------------------------------


    POTLOK:  cpu time    4.2475: real time    4.2789
    SETDIJ:  cpu time    0.0530: real time    0.0531
    TRIAL :  cpu time    1.1657: real time    1.1832
    CORREC:  cpu time    4.7987: real time    4.8384
    CHARGE:  cpu time    0.1823: real time    0.1843
    --------------------------------------------
      LOOP:  cpu time   10.4543: real time   10.5699

 eigenvalue-minimisations  :     0
 total energy-change (2. order) :-0.7784016E-03  (-0.4293633E-03)
 number of electron     216.0000000 magnetization 
 augmentation part       -0.3563172 magnetization 

 Free energy of the ion-electron system (eV)
  ---------------------------------------------------
  alpha Z        PSCENC =        47.94900195
  Ewald energy   TEWEN  =     40970.05347293
  -Hartree energ DENC   =    -47974.19727514
  -exchange      EXHF   =         0.00000000
  -V(xc)+E(xc)   XCENC  =       385.29564738
  PAW double counting   =     78978.72420909   -78692.04680260
  entropy T*S    EENTRO =        -0.00000000
  eigenvalues    EBANDS =     -2666.80518406
  atomic energy  EATOM  =      8557.41276814
  ---------------------------------------------------
  free energy    TOTEN  =      -393.61416231 eV

  energy without entropy =     -393.61416231  energy(sigma->0) =     -393.61416231


--------------------------------------------------------------------------------------------------------




--------------------------------------- Iteration      1(  17)  ---------------------------------------


    POTLOK:  cpu time    4.2575: real time    4.2873
    SETDIJ:  cpu time    0.0529: real time    0.0531
    TRIAL :  cpu time    1.1619: real time    1.1733
    CORREC:  cpu time    4.7337: real time    4.7710
    CHARGE:  cpu time    0.1822: real time    0.1840
    --------------------------------------------
      LOOP:  cpu time   10.4227: real time   10.5066

 eigenvalue-minimisations  :     0
 total energy-change (2. order) :-0.4300433E-03  (-0.1776050E-03)
 number of electron     216.0000000 magnetization 
 augmentation part       -0.3562790 magnetization 

 Free energy of the ion-electron system (eV)
  ---------------------------------------------------
  alpha Z        PSCENC =        47.94900195
  Ewald energy   TEWEN  =     40970.05347293
  -Hartree energ DENC   =    -47974.35081874
  -exchange      EXHF   =         0.00000000
  -V(xc)+E(xc)   XCENC  =       385.29906039
  PAW double counting   =     78911.68259027   -78625.00256915
  entropy T*S    EENTRO =        -0.00000000
  eigenvalues    EBANDS =     -2666.65809815
  atomic energy  EATOM  =      8557.41276814
  ---------------------------------------------------
  free energy    TOTEN  =      -393.61459235 eV

  energy without entropy =     -393.61459235  energy(sigma->0) =     -393.61459235


--------------------------------------------------------------------------------------------------------




--------------------------------------- Iteration      1(  18)  ---------------------------------------


    POTLOK:  cpu time    4.2582: real time    4.2882
    SETDIJ:  cpu time    0.0529: real time    0.0531
    TRIAL :  cpu time    1.1609: real time    1.1727
    CORREC:  cpu time    4.7605: real time    4.7973
    CHARGE:  cpu time    0.1780: real time    0.1799
    --------------------------------------------
      LOOP:  cpu time   10.4826: real time   10.5671

 eigenvalue-minimisations  :     0
 total energy-change (2. order) :-0.1784865E-03  (-0.6411091E-04)
 number of electron     216.0000000 magnetization 
 augmentation part       -0.3563220 magnetization 

 Free energy of the ion-electron system (eV)
  ---------------------------------------------------
  alpha Z        PSCENC =        47.94900195
  Ewald energy   TEWEN  =     40970.05347293
  -Hartree energ DENC   =    -47974.47249518
  -exchange      EXHF   =         0.00000000
  -V(xc)+E(xc)   XCENC  =       385.30331925
  PAW double counting   =     78897.91640657   -78611.23250078
  entropy T*S    EENTRO =        -0.00000000
  eigenvalues    EBANDS =     -2666.54474373
  atomic energy  EATOM  =      8557.41276814
  ---------------------------------------------------
  free energy    TOTEN  =      -393.61477084 eV

  energy without entropy =     -393.61477084  energy(sigma->0) =     -393.61477084


--------------------------------------------------------------------------------------------------------




--------------------------------------- Iteration      1(  19)  ---------------------------------------


    POTLOK:  cpu time    4.2529: real time    4.2900
    SETDIJ:  cpu time    0.0529: real time    0.0533
    TRIAL :  cpu time    1.1577: real time    1.1743
    CORREC:  cpu time    4.7433: real time    4.7804
    CHARGE:  cpu time    0.1816: real time    0.1834
    --------------------------------------------
      LOOP:  cpu time   10.4772: real time   10.5714

 eigenvalue-minimisations  :     0
 total energy-change (2. order) :-0.6451563E-04  (-0.2453506E-04)
 number of electron     216.0000000 magnetization 
 augmentation part       -0.3563357 magnetization 

 Free energy of the ion-electron system (eV)
  ---------------------------------------------------
  alpha Z        PSCENC =        47.94900195
  Ewald energy   TEWEN  =     40970.05347293
  -Hartree energ DENC   =    -47974.50127031
  -exchange      EXHF   =         0.00000000
  -V(xc)+E(xc)   XCENC  =       385.30379039
  PAW double counting   =     78915.27065585   -78628.58391441
  entropy T*S    EENTRO =        -0.00000000
  eigenvalues    EBANDS =     -2666.51933990
  atomic energy  EATOM  =      8557.41276814
  ---------------------------------------------------
  free energy    TOTEN  =      -393.61483535 eV

  energy without entropy =     -393.61483535  energy(sigma->0) =     -393.61483535


--------------------------------------------------------------------------------------------------------




--------------------------------------- Iteration      1(  20)  ---------------------------------------


    POTLOK:  cpu time    4.2410: real time    4.2727
    SETDIJ:  cpu time    0.0533: real time    0.0535
    TRIAL :  cpu time    1.1612: real time    1.1730
    CORREC:  cpu time    4.7375: real time    4.7775
    CHARGE:  cpu time    0.1810: real time    0.1831
    --------------------------------------------
      LOOP:  cpu time   10.4429: real time   10.5292

 eigenvalue-minimisations  :     0
 total energy-change (2. order) :-0.2466515E-04  (-0.1265019E-04)
 number of electron     216.0000000 magnetization 
 augmentation part       -0.3563362 magnetization 

 Free energy of the ion-electron system (eV)
  ---------------------------------------------------
  alpha Z        PSCENC =        47.94900195
  Ewald energy   TEWEN  =     40970.05347293
  -Hartree energ DENC   =    -47974.49798147
  -exchange      EXHF   =         0.00000000
  -V(xc)+E(xc)   XCENC  =       385.30453231
  PAW double counting   =     78938.17118785   -78651.48378518
  entropy T*S    EENTRO =        -0.00000000
  eigenvalues    EBANDS =     -2666.52405655
  atomic energy  EATOM  =      8557.41276814
  ---------------------------------------------------
  free energy    TOTEN  =      -393.61486002 eV

  energy without entropy =     -393.61486002  energy(sigma->0) =     -393.61486002


--------------------------------------------------------------------------------------------------------




--------------------------------------- Iteration      1(  21)  ---------------------------------------


    POTLOK:  cpu time    4.2446: real time    4.2746
    SETDIJ:  cpu time    0.0530: real time    0.0532
    TRIAL :  cpu time    1.1608: real time    1.1727
    CORREC:  cpu time    4.7271: real time    4.7628
    CHARGE:  cpu time    0.1816: real time    0.1834
    --------------------------------------------
      LOOP:  cpu time   10.4512: real time   10.5371

 eigenvalue-minimisations  :     0
 total energy-change (2. order) :-0.1259983E-04  (-0.6281496E-05)
 number of electron     216.0000000 magnetization 
 augmentation part       -0.3563134 magnetization 

 Free energy of the ion-electron system (eV)
  ---------------------------------------------------
  alpha Z        PSCENC =        47.94900195
  Ewald energy   TEWEN  =     40970.05347293
  -Hartree energ DENC   =    -47974.45856091
  -exchange      EXHF   =         0.00000000
  -V(xc)+E(xc)   XCENC  =       385.30348367
  PAW double counting   =     78954.55112758   -78667.86372054
  entropy T*S    EENTRO =        -0.00000000
  eigenvalues    EBANDS =     -2666.56244546
  atomic energy  EATOM  =      8557.41276814
  ---------------------------------------------------
  free energy    TOTEN  =      -393.61487262 eV

  energy without entropy =     -393.61487262  energy(sigma->0) =     -393.61487262


--------------------------------------------------------------------------------------------------------




--------------------------------------- Iteration      1(  22)  ---------------------------------------


    POTLOK:  cpu time    4.2653: real time    4.2969
    SETDIJ:  cpu time    0.0530: real time    0.0532
    TRIAL :  cpu time    1.1618: real time    1.1736
    CORREC:  cpu time    4.7442: real time    4.7888
    CHARGE:  cpu time    0.1820: real time    0.1839
    --------------------------------------------
      LOOP:  cpu time   10.4678: real time   10.5593

 eigenvalue-minimisations  :     0
 total energy-change (2. order) :-0.6222414E-05  (-0.3044640E-05)
 number of electron     216.0000000 magnetization 
 augmentation part       -0.3563055 magnetization 

 Free energy of the ion-electron system (eV)
  ---------------------------------------------------
  alpha Z        PSCENC =        47.94900195
  Ewald energy   TEWEN  =     40970.05347293
  -Hartree energ DENC   =    -47974.44673956
  -exchange      EXHF   =         0.00000000
  -V(xc)+E(xc)   XCENC  =       385.30330466
  PAW double counting   =     78959.82764226   -78673.14065655
  entropy T*S    EENTRO =        -0.00000000
  eigenvalues    EBANDS =     -2666.57367267
  atomic energy  EATOM  =      8557.41276814
  ---------------------------------------------------
  free energy    TOTEN  =      -393.61487884 eV

  energy without entropy =     -393.61487884  energy(sigma->0) =     -393.61487884


--------------------------------------------------------------------------------------------------------




--------------------------------------- Iteration      1(  23)  ---------------------------------------


    POTLOK:  cpu time    4.2507: real time    4.2823
    SETDIJ:  cpu time    0.0532: real time    0.0534
    TRIAL :  cpu time    1.1604: real time    1.1719
    CORREC:  cpu time    4.7366: real time    4.7721
    CHARGE:  cpu time    0.1825: real time    0.1843
    --------------------------------------------
      LOOP:  cpu time   10.4730: real time   10.5551

 eigenvalue-minimisations  :     0
 total energy-change (2. order) :-0.3035806E-05  (-0.1364959E-05)
 number of electron     216.0000000 magnetization 
 augmentation part       -0.3563088 magnetization 

 Free energy of the ion-electron system (eV)
  ---------------------------------------------------
  alpha Z        PSCENC =        47.94900195
  Ewald energy   TEWEN  =     40970.05347293
  -Hartree energ DENC   =    -47974.42724591
  -exchange      EXHF   =         0.00000000
  -V(xc)+E(xc)   XCENC  =       385.30271906
  PAW double counting   =     78958.90274173   -78672.21587545
  entropy T*S    EENTRO =        -0.00000000
  eigenvalues    EBANDS =     -2666.59246434
  atomic energy  EATOM  =      8557.41276814
  ---------------------------------------------------
  free energy    TOTEN  =      -393.61488188 eV

  energy without entropy =     -393.61488188  energy(sigma->0) =     -393.61488188


--------------------------------------------------------------------------------------------------------




--------------------------------------- Iteration      1(  24)  ---------------------------------------


    POTLOK:  cpu time    4.2593: real time    4.2900
    SETDIJ:  cpu time    0.0530: real time    0.0532
    TRIAL :  cpu time    1.1621: real time    1.1738
    CORREC:  cpu time    4.7668: real time    4.8051
    CHARGE:  cpu time    0.1826: real time    0.1847
    --------------------------------------------
      LOOP:  cpu time   10.4530: real time   10.5490

 eigenvalue-minimisations  :     0
 total energy-change (2. order) :-0.1371198E-05  (-0.6676085E-06)
 number of electron     216.0000000 magnetization 
 augmentation part       -0.3563179 magnetization 

 Free energy of the ion-electron system (eV)
  ---------------------------------------------------
  alpha Z        PSCENC =        47.94900195
  Ewald energy   TEWEN  =     40970.05347293
  -Hartree energ DENC   =    -47974.42283017
  -exchange      EXHF   =         0.00000000
  -V(xc)+E(xc)   XCENC  =       385.30268149
  PAW double counting   =     78956.30276419   -78669.61590923
  entropy T*S    EENTRO =        -0.00000000
  eigenvalues    EBANDS =     -2666.59683256
  atomic energy  EATOM  =      8557.41276814
  ---------------------------------------------------
  free energy    TOTEN  =      -393.61488325 eV

  energy without entropy =     -393.61488325  energy(sigma->0) =     -393.61488325


--------------------------------------------------------------------------------------------------------




--------------------------------------- Iteration      1(  25)  ---------------------------------------


    POTLOK:  cpu time    4.2664: real time    4.2962
    SETDIJ:  cpu time    0.0531: real time    0.0533
    TRIAL :  cpu time    1.1652: real time    1.1765
    CORREC:  cpu time    4.7587: real time    4.8054
    CHARGE:  cpu time    0.1824: real time    0.1843
    --------------------------------------------
      LOOP:  cpu time   10.5105: real time   10.6024

 eigenvalue-minimisations  :     0
 total energy-change (2. order) :-0.6600021E-06  (-0.3177248E-06)
 number of electron     216.0000000 magnetization 
 augmentation part       -0.3563251 magnetization 

 Free energy of the ion-electron system (eV)
  ---------------------------------------------------
  alpha Z        PSCENC =        47.94900195
  Ewald energy   TEWEN  =     40970.05347293
  -Hartree energ DENC   =    -47974.43015525
  -exchange      EXHF   =         0.00000000
  -V(xc)+E(xc)   XCENC  =       385.30290080
  PAW double counting   =     78953.92077425   -78667.23392320
  entropy T*S    EENTRO =        -0.00000000
  eigenvalues    EBANDS =     -2666.58972354
  atomic energy  EATOM  =      8557.41276814
  ---------------------------------------------------
  free energy    TOTEN  =      -393.61488391 eV

  energy without entropy =     -393.61488391  energy(sigma->0) =     -393.61488391


--------------------------------------------------------------------------------------------------------




--------------------------------------- Iteration      1(  26)  ---------------------------------------


    POTLOK:  cpu time    4.2340: real time    4.2638
    SETDIJ:  cpu time    0.0529: real time    0.0531
    TRIAL :  cpu time    1.1619: real time    1.1734
    CORREC:  cpu time    4.7790: real time    4.8175
    CHARGE:  cpu time    0.1822: real time    0.1844
    --------------------------------------------
      LOOP:  cpu time   10.4733: real time   10.5559

 eigenvalue-minimisations  :     0
 total energy-change (2. order) :-0.2967281E-06  (-0.1636506E-06)
 number of electron     216.0000000 magnetization 
 augmentation part       -0.3563239 magnetization 

 Free energy of the ion-electron system (eV)
  ---------------------------------------------------
  alpha Z        PSCENC =        47.94900195
  Ewald energy   TEWEN  =     40970.05347293
  -Hartree energ DENC   =    -47974.43179441
  -exchange      EXHF   =         0.00000000
  -V(xc)+E(xc)   XCENC  =       385.30284972
  PAW double counting   =     78952.30039614   -78665.61354716
  entropy T*S    EENTRO =        -0.00000000
  eigenvalues    EBANDS =     -2666.58803151
  atomic energy  EATOM  =      8557.41276814
  ---------------------------------------------------
  free energy    TOTEN  =      -393.61488421 eV

  energy without entropy =     -393.61488421  energy(sigma->0) =     -393.61488421


--------------------------------------------------------------------------------------------------------




--------------------------------------- Iteration      1(  27)  ---------------------------------------


    POTLOK:  cpu time    4.2646: real time    4.2956
    SETDIJ:  cpu time    0.0531: real time    0.0533
    TRIAL :  cpu time    1.1764: real time    1.1876
    CORREC:  cpu time    4.7275: real time    4.7785
    CHARGE:  cpu time    0.1820: real time    0.1839
    --------------------------------------------
      LOOP:  cpu time   10.4506: real time   10.5481

 eigenvalue-minimisations  :     0
 total energy-change (2. order) :-0.1368462E-06  (-0.6366274E-07)
 number of electron     216.0000000 magnetization 
 augmentation part       -0.3563241 magnetization 

 Free energy of the ion-electron system (eV)
  ---------------------------------------------------
  alpha Z        PSCENC =        47.94900195
  Ewald energy   TEWEN  =     40970.05347293
  -Hartree energ DENC   =    -47974.43839814
  -exchange      EXHF   =         0.00000000
  -V(xc)+E(xc)   XCENC  =       385.30302700
  PAW double counting   =     78951.43238487   -78664.74563079
  entropy T*S    EENTRO =        -0.00000000
  eigenvalues    EBANDS =     -2666.58151031
  atomic energy  EATOM  =      8557.41276814
  ---------------------------------------------------
  free energy    TOTEN  =      -393.61488434 eV

  energy without entropy =     -393.61488434  energy(sigma->0) =     -393.61488434


--------------------------------------------------------------------------------------------------------




--------------------------------------- Iteration      1(  28)  ---------------------------------------


    POTLOK:  cpu time    4.2793: real time    4.3115
    SETDIJ:  cpu time    0.0531: real time    0.0533
    TRIAL :  cpu time    1.1610: real time    1.1739
    CORREC:  cpu time    4.7395: real time    4.7766
    EDDIAG:  cpu time    0.4359: real time    0.4411
    CHARGE:  cpu time    0.1811: real time    0.1829
[...]
      16 -86.7817      17 -86.7821      18 -86.7823      19 -86.7825      20 -86.7821
      21 -86.7814      22 -86.7814      23 -86.7834      24 -86.7834      25 -86.7816
      26 -86.7816      27 -86.7818      28 -86.7826      29 -86.7814      30 -86.7816
      31 -86.7827      32 -86.7823      33 -86.7817      34 -86.7817      35 -86.7818
      36 -86.7818      37 -86.7822      38 -86.7824      39 -86.7822      40 -86.7823
      41 -86.7822      42 -86.7822      43 -86.7821      44 -86.7825      45 -86.7816
      46 -86.7816      47 -86.7816      48 -86.7817      49 -86.7823      50 -86.7821
      51 -91.0727      52-120.8378      53-120.8371
 
 
 
 E-fermi :  -4.4300     XC(G=0):  -2.3176     alpha+bet : -1.6890

 Fermi energy:        -4.4299662362

 k-point     1 :       0.0000    0.0000    0.0000
  band No.  band energies     occupation 
      1     -27.9079      2.00000
      2     -26.9582      2.00000
      3     -22.3924      2.00000
      4     -21.4662      2.00000
      5     -21.4648      2.00000
      6     -21.4646      2.00000
      7     -21.4644      2.00000
      8     -21.4642      2.00000
      9     -21.4636      2.00000
     10     -19.6500      2.00000
     11     -19.6499      2.00000
     12     -19.6497      2.00000
     13     -19.6490      2.00000
     14     -19.6485      2.00000
     15     -19.6483      2.00000
     16     -18.7696      2.00000
     17     -18.7695      2.00000
     18     -18.7690      2.00000
     19     -18.7688      2.00000
     20     -18.7681      2.00000
     21     -18.7678      2.00000
     22     -16.6739      2.00000
     23     -16.6735      2.00000
     24     -16.6729      2.00000
     25     -16.6727      2.00000
     26     -16.6721      2.00000
     27     -16.6720      2.00000
     28     -15.6293      2.00000
     29     -15.6292      2.00000
     30     -15.6282      2.00000
     31     -15.6280      2.00000
     32     -15.6277      2.00000
     33     -15.6276      2.00000
     34     -14.3167      2.00000
     35     -14.3166      2.00000
     36     -14.3160      2.00000
     37     -14.3158      2.00000
     38     -14.3157      2.00000
     39     -14.3154      2.00000
     40     -12.7891      2.00000
     41     -12.0202      2.00000
     42     -12.0200      2.00000
     43     -12.0195      2.00000
     44     -12.0194      2.00000
     45     -12.0183      2.00000
     46     -12.0180      2.00000
     47     -11.8518      2.00000
     48     -11.8517      2.00000
     49     -11.8510      2.00000
     50     -11.8509      2.00000
     51     -11.8508      2.00000
     52     -11.8507      2.00000
     53     -11.6767      2.00000
     54     -11.5087      2.00000
     55     -11.5086      2.00000
     56     -10.5712      2.00000
     57     -10.5009      2.00000
     58     -10.5007      2.00000
     59     -10.4992      2.00000
     60     -10.4988      2.00000
     61     -10.4986      2.00000
     62     -10.4985      2.00000
     63      -9.4606      2.00000
     64      -9.4595      2.00000
     65      -9.4592      2.00000
     66      -9.4591      2.00000
     67      -9.4590      2.00000
     68      -9.4586      2.00000
     69      -9.3188      2.00000
     70      -9.3176      2.00000
     71      -9.3172      2.00000
     72      -9.3171      2.00000
     73      -9.3169      2.00000
     74      -9.3165      2.00000
     75      -9.2627      2.00000
     76      -9.2624      2.00000
     77      -9.2615      2.00000
     78      -9.2614      2.00000
     79      -9.2613      2.00000
     80      -9.2605      2.00000
     81      -8.0158      2.00000
     82      -8.0157      2.00000
     83      -7.7091      2.00000
     84      -7.7073      2.00000
     85      -7.7072      2.00000
     86      -7.7069      2.00000
     87      -7.7060      2.00000
     88      -7.7059      2.00000
     89      -7.3428      2.00000
     90      -7.3426      2.00000
     91      -7.3424      2.00000
     92      -7.3420      2.00000
     93      -7.3416      2.00000
     94      -7.3413      2.00000
     95      -6.4533      2.00000
     96      -6.4532      2.00000
     97      -6.4529      2.00000
     98      -6.4528      2.00000
     99      -6.4521      2.00000
    100      -6.4519      2.00000
    101      -6.2847      2.00000
    102      -6.2825      2.00000
    103      -4.4873      2.00000
    104      -4.4869      2.00000
    105      -4.4865      2.00000
    106      -4.4864      2.00000
    107      -4.4859      2.00000
    108      -4.4858      2.00000
    109      -1.7011      0.00000
    110      -1.7010      0.00000
    111      -1.7007      0.00000
    112      -1.7006      0.00000
    113      -1.6999      0.00000
    114      -1.6996      0.00000
    115      -0.3780      0.00000
    116      -0.1508      0.00000
    117       0.1458      0.00000
    118       0.1459      0.00000
    119       0.1463      0.00000
    120       0.1469      0.00000
    121       0.1474      0.00000
    122       0.1502      0.00000
    123       0.6158      0.00000
    124       0.9031      0.00000
    125       0.9073      0.00000
    126       0.9088      0.00000
    127       0.9117      0.00000
    128       0.9135      0.00000
    129       0.9139      0.00000
    130       1.2296      0.00000
    131       1.4957      0.00000
    132       1.7051      0.00000
    133       1.7737      0.00000
    134       1.8038      0.00000
    135       1.8187      0.00000
    136       1.8930      0.00000


--------------------------------------------------------------------------------------------------------


 soft charge-density along one line, spin component           1
         0         1         2         3         4         5         6         7         8         9
 total charge-density along one line
 
 pseudopotential strength for first ion, spin component:           1
 12.619  21.238   0.000  -0.000  -0.000   0.000  -0.000  -0.000
 21.238  35.742   0.000  -0.000  -0.000   0.000  -0.000  -0.000
  0.000   0.000  -3.327  -0.000   0.000  -5.962  -0.000   0.000
 -0.000  -0.000  -0.000  -3.362  -0.000  -0.000  -6.024  -0.000
 -0.000  -0.000   0.000  -0.000  -3.327   0.000  -0.000  -5.962
  0.000   0.000  -5.962  -0.000   0.000 -10.663  -0.000   0.000
 -0.000  -0.000  -0.000  -6.024  -0.000  -0.000 -10.773  -0.000
 -0.000  -0.000   0.000  -0.000  -5.962   0.000  -0.000 -10.663
 total augmentation occupancy for first ion, spin component:           1
  6.242  -2.004  -0.000  -0.002  -0.000   0.000   0.001   0.000
 -2.004   0.691   0.000   0.001   0.000  -0.000  -0.000  -0.000
 -0.000   0.000   5.992  -0.007   0.000  -1.878   0.003  -0.000
 -0.002   0.001  -0.007   2.311  -0.000   0.003  -0.483   0.000
 -0.000   0.000   0.000  -0.000   5.992  -0.000   0.000  -1.878
  0.000  -0.000  -1.878   0.003  -0.000   0.606  -0.001   0.000
  0.001  -0.000   0.003  -0.483   0.000  -0.001   0.111  -0.000
  0.000  -0.000  -0.000   0.000  -1.878   0.000  -0.000   0.606


------------------------ aborting loop because EDIFF is reached ----------------------------------------


    FORLOC:  cpu time    0.0676: real time    0.0682
    FORNL :  cpu time    0.8429: real time    0.8474
    FORCOR:  cpu time    4.3390: real time    4.3692
    OFIELD:  cpu time    0.0015: real time    0.0015

 VOLUME and BASIS-vectors are now :
 -----------------------------------------------------------------------------
  energy-cutoff  :     1000.00
  volume of cell :     3288.85
      direct lattice vectors                 reciprocal lattice vectors
    12.325000000  0.000000000  0.000000000     0.081135903  0.046843835  0.000000000
    -6.162500000 10.673763102  0.000000000     0.000000000  0.093687670  0.000000000
     0.000000000  0.000000000 25.000000000     0.000000000  0.000000000  0.040000000

  length of vectors
    12.325000000 12.325000000 25.000000000     0.093687670  0.093687670  0.040000000


 FORCES acting on ions:
    Electron-Ion                     Ewald-Force                    Non-Local-Force
 -----------------------------------------------------------------------------------------------
   0.466E+00 0.422E+00 0.119E+02   -.467E+00 -.423E+00 -.119E+02   0.408E-02 -.697E-03 0.595E-02
   0.636E+00 0.380E+00 0.128E+02   -.639E+00 -.378E+00 -.128E+02   0.231E-02 -.277E-02 -.609E-02
   0.251E+00 0.691E+00 0.127E+02   -.253E+00 -.691E+00 -.127E+02   -.344E-03 0.110E-01 -.212E-02
   0.316E+00 0.468E+00 0.147E+02   -.313E+00 -.468E+00 -.147E+02   0.115E-01 0.549E-03 -.172E-01
   0.543E+00 0.152E+00 0.124E+02   -.541E+00 -.153E+00 -.124E+02   -.885E-03 -.494E-02 0.436E-02
   0.555E+00 -.128E+00 0.126E+02   -.558E+00 0.129E+00 -.126E+02   -.638E-02 0.337E-02 -.178E-02
   0.592E+00 0.302E+00 0.148E+02   -.593E+00 -.303E+00 -.148E+02   0.112E-01 -.187E-01 -.721E-02
   0.630E+00 -.177E+00 0.160E+02   -.635E+00 0.179E+00 -.160E+02   -.743E-02 -.490E-02 -.577E-02
   -.290E+00 0.714E+00 0.131E+02   0.293E+00 -.716E+00 -.131E+02   0.478E-03 -.130E-01 -.529E-02
   -.340E+00 0.313E+00 0.151E+02   0.340E+00 -.314E+00 -.151E+02   -.246E-01 0.141E-01 0.157E-02
   0.144E+00 -.143E+00 0.118E+02   -.141E+00 0.143E+00 -.118E+02   0.379E-02 -.258E-02 0.101E-02
   0.152E+00 -.122E+00 0.116E+02   -.153E+00 0.123E+00 -.116E+02   -.617E-02 0.312E-02 0.710E-02
   0.127E+00 -.471E+00 0.168E+02   -.126E+00 0.473E+00 -.168E+02   0.256E-01 -.705E-02 -.290E-02
   0.875E-01 -.777E+00 0.143E+02   -.911E-01 0.779E+00 -.143E+02   0.300E-02 0.705E-02 -.166E-01
   -.520E+00 0.308E+00 0.120E+02   0.522E+00 -.309E+00 -.120E+02   0.728E-02 -.396E-02 0.885E-02
   -.636E+00 0.158E+00 0.121E+02   0.635E+00 -.158E+00 -.121E+02   -.959E-03 0.460E-02 -.442E-02
   -.862E-01 -.396E-01 0.112E+02   0.887E-01 0.380E-01 -.112E+02   0.277E-03 0.161E-03 0.213E-02
   0.461E-01 0.310E+00 0.113E+02   -.459E-01 -.311E+00 -.113E+02   -.256E-02 0.132E-02 0.945E-02
   -.144E+00 -.723E+00 0.130E+02   0.144E+00 0.724E+00 -.130E+02   0.558E-02 -.116E-02 0.223E-03
   -.883E-01 -.454E+00 0.119E+02   0.857E-01 0.454E+00 -.119E+02   -.484E-03 -.568E-03 -.618E-03
   0.702E+00 -.285E+00 0.138E+02   -.701E+00 0.285E+00 -.137E+02   -.232E-02 -.164E-02 -.162E-01
   0.516E+00 -.408E+00 0.130E+02   -.518E+00 0.409E+00 -.130E+02   -.673E-02 0.536E-02 -.630E-03
   -.110E+00 0.180E+00 0.165E+02   0.105E+00 -.178E+00 -.165E+02   -.102E-01 0.102E-01 -.936E-03
   -.178E+00 -.287E+00 0.165E+02   0.181E+00 0.285E+00 -.165E+02   0.120E-01 -.144E-01 -.129E-01
   0.272E+00 -.990E-01 0.119E+02   -.271E+00 0.977E-01 -.119E+02   0.359E-02 -.259E-02 -.223E-02
   0.921E-01 0.226E+00 0.117E+02   -.925E-01 -.225E+00 -.117E+02   -.454E-02 0.302E-02 0.677E-02
   -.751E+00 0.387E-01 0.135E+02   0.755E+00 -.408E-01 -.135E+02   0.122E-01 0.726E-02 -.261E-02
   -.667E+00 -.295E+00 0.129E+02   0.669E+00 0.295E+00 -.129E+02   -.787E-02 0.891E-02 0.159E-03
   0.262E+00 -.578E+00 0.131E+02   -.261E+00 0.578E+00 -.131E+02   0.367E-02 0.250E-02 -.575E-02
   0.299E-01 -.252E+00 0.121E+02   -.319E-01 0.253E+00 -.121E+02   -.476E-02 0.241E-02 -.114E-02
   -.479E+00 -.460E+00 0.138E+02   0.477E+00 0.461E+00 -.138E+02   -.114E-01 -.739E-02 -.149E-01
   -.361E+00 -.698E+00 0.127E+02   0.362E+00 0.697E+00 -.127E+02   0.708E-03 -.808E-03 0.130E-02
   0.196E-01 0.166E+00 0.115E+02   -.191E-01 -.167E+00 -.115E+02   0.443E-02 -.431E-02 0.805E-02
   0.868E-01 0.132E+00 0.116E+02   -.896E-01 -.132E+00 -.116E+02   -.245E-02 0.446E-02 -.373E-03
   -.337E+00 0.662E-01 0.117E+02   0.340E+00 -.672E-01 -.118E+02   0.418E-02 -.240E-02 0.718E-02
   -.292E+00 -.145E+00 0.117E+02   0.291E+00 0.146E+00 -.117E+02   -.333E-02 0.203E-02 0.464E-02
   -.542E+00 -.311E+00 0.118E+02   0.545E+00 0.309E+00 -.118E+02   -.126E-03 0.822E-03 0.338E-02
   -.365E+00 -.299E+00 0.115E+02   0.366E+00 0.300E+00 -.115E+02   -.333E-02 0.124E-02 0.905E-02
   -.341E+00 -.424E+00 0.117E+02   0.340E+00 0.425E+00 -.117E+02   -.266E-02 0.457E-03 0.421E-02
   -.485E-01 -.127E+00 0.114E+02   0.496E-01 0.126E+00 -.114E+02   0.181E-02 0.663E-03 0.709E-02
   0.133E+00 0.322E+00 0.113E+02   -.134E+00 -.322E+00 -.113E+02   -.381E-02 0.139E-02 0.654E-02
   0.397E+00 0.578E+00 0.118E+02   -.395E+00 -.579E+00 -.118E+02   -.750E-03 -.114E-02 0.706E-02
   0.540E-01 0.523E+00 0.115E+02   -.513E-01 -.525E+00 -.115E+02   0.318E-03 0.139E-03 0.239E-02
   0.143E-01 0.742E+00 0.123E+02   -.140E-01 -.743E+00 -.124E+02   -.752E-02 0.116E-02 0.505E-02
   -.106E+00 0.189E+00 0.118E+02   0.108E+00 -.191E+00 -.118E+02   0.405E-02 -.311E-02 0.269E-02
   -.349E+00 0.471E+00 0.121E+02   0.349E+00 -.471E+00 -.121E+02   -.521E-02 -.263E-03 -.485E-03
   -.123E+00 -.238E+00 0.119E+02   0.124E+00 0.237E+00 -.119E+02   0.554E-02 -.105E-02 0.704E-02
   -.217E+00 0.714E-01 0.115E+02   0.215E+00 -.707E-01 -.115E+02   -.365E-02 0.316E-02 -.233E-02
   0.111E-01 -.139E+00 0.115E+02   -.111E-01 0.139E+00 -.115E+02   0.380E-02 -.288E-02 0.578E-02
   0.225E+00 0.165E+00 0.114E+02   -.227E+00 -.164E+00 -.114E+02   -.791E-03 0.175E-02 0.337E-02
   -.381E-02 0.290E-01 -.157E+03   -.336E-03 -.254E-01 0.158E+03   -.270E-02 0.196E-02 0.264E-02
   -.229E+03 0.156E+03 -.249E+03   0.279E+03 -.190E+03 0.252E+03   -.513E+02 0.349E+02 -.344E+01
   0.229E+03 -.156E+03 -.227E+03   -.279E+03 0.190E+03 0.224E+03   0.513E+02 -.349E+02 0.310E+01
 -----------------------------------------------------------------------------------------------
   -.754E-02 0.140E-01 0.338E+00   0.114E-12 -.853E-13 0.284E-13   0.753E-02 -.140E-01 -.339E+00
 
 
 POSITION                                       TOTAL-FORCE (eV/Angst)
 -----------------------------------------------------------------------------------
     11.98348      0.00342      0.01417         0.003222     -0.001820     -0.000802
     -0.34154      1.42665      0.01100        -0.000735      0.000181     -0.003537
      2.12355      0.00315      0.01249        -0.002153      0.010992     -0.006339
      2.12326      1.42653      0.00641         0.013993      0.001234     -0.008707
     10.75099      2.13819      0.01213         0.000700     -0.005741      0.000106
     -1.57382      3.56123      0.01110        -0.009010      0.004523     -0.001445
      0.89078      2.13854      0.00548         0.009833     -0.019325      0.001880
      0.89099      3.56147      0.00181        -0.011492     -0.002552      0.011004
      4.58864      0.00346      0.01135         0.003538     -0.015356     -0.003597
      4.58894      1.42623      0.00646        -0.023519      0.013321      0.013106
      9.51854      4.27281      0.01369         0.006497     -0.002956      0.000252
     -2.80632      5.69591      0.01434        -0.006601      0.003383      0.000941
      2.12300      4.27302      0.00000         0.025219     -0.005143      0.019250
      2.12335      5.69594      0.00581        -0.000641      0.008837     -0.003174
      7.05344      0.00333      0.01399         0.009203     -0.005192     -0.000039
      7.05353      1.42635      0.01368        -0.001710      0.004828     -0.003748
      8.28610      6.40752      0.01601         0.002817     -0.001438     -0.000649
     -4.03885      7.83070      0.01636        -0.002324      0.000932      0.000194
      3.35586      6.40753      0.01007         0.005732      0.000590     -0.001247
      3.35599      7.83072      0.01320        -0.003136     -0.000016     -0.000669
     -0.34146      4.27290      0.00723        -0.001738     -0.001406     -0.004888
     -0.34138      5.69591      0.00946        -0.009026      0.006499     -0.001054
      3.35624      2.13791      0.00222        -0.014259      0.012155      0.014983
      3.35573      3.56155      0.00139         0.014068     -0.016291      0.007463
     -1.57395      6.40758      0.01311         0.005222     -0.003884     -0.000616
     -1.57385      7.83068      0.01438        -0.004869      0.003820      0.000273
      5.82093      2.13784      0.01033         0.015598      0.005068     -0.002949
      5.82114      3.56097      0.01156        -0.006542      0.008850     -0.003609
      0.89092      6.40755      0.00907         0.004651      0.002197     -0.002339
      0.89106      7.83068      0.01235        -0.006668      0.003963      0.000339
      4.58871      4.27293      0.00850        -0.013378     -0.006164     -0.011004
      4.58852      5.69606      0.01149         0.002206     -0.001679     -0.003831
      9.51845      0.00337      0.01490         0.004806     -0.004616      0.000391
      9.51855      1.42644      0.01438        -0.005184      0.005269     -0.000252
      8.28593      2.13803      0.01453         0.006799     -0.003279      0.000788
      8.28613      3.56115      0.01464        -0.004511      0.002214      0.000168
      7.05356      4.27269      0.01457         0.002608     -0.001167     -0.000526
      7.05362      5.69588      0.01553        -0.002545      0.001634      0.000194
      5.82112      6.40755      0.01489        -0.003191      0.001674      0.000042
      5.82102      7.83073      0.01579         0.002864      0.000105     -0.000042
      7.05363      8.54227      0.01631        -0.004758      0.001373      0.001235
     -5.27149      9.96549      0.01495         0.000579     -0.001966     -0.001901
     -2.80638      8.54234      0.01558         0.003101     -0.001354     -0.001063
     -2.80627      9.96553      0.01362        -0.007091     -0.000053     -0.003485
     -0.34149      8.54239      0.01378         0.005670     -0.004963      0.000344
     -0.34138      9.96550      0.01354        -0.005754     -0.000028     -0.001164
      2.12343      8.54232      0.01336         0.005912     -0.001573      0.000927
      2.12354      9.96544      0.01469        -0.005032      0.003758     -0.001823
      4.58846      8.54235      0.01505         0.003722     -0.002760      0.001135
      4.58853      9.96550      0.01517        -0.002653      0.003276      0.000277
      3.04930      2.68154      8.90899        -0.006735      0.005481      0.032974
      4.02070      2.02068      8.97341        -0.488607      0.332072     -0.048204
      2.07767      3.34267      8.84953         0.495305     -0.337509      0.014433
 -----------------------------------------------------------------------------------
    total drift:                               -0.000017      0.000004     -0.001196


--------------------------------------------------------------------------------------------------------



  FREE ENERGIE OF THE ION-ELECTRON SYSTEM (eV)
  ---------------------------------------------------
  free  energy   TOTEN  =      -393.61488440 eV

  energy  without entropy=     -393.61488440  energy(sigma->0) =     -393.61488440
 


--------------------------------------------------------------------------------------------------------


    POTLOK:  cpu time    4.3333: real time    4.3640


--------------------------------------------------------------------------------------------------------


     LOOP+:  cpu time  295.2559: real time  297.9672
    4ORBIT:  cpu time    0.0000: real time    0.0000

 total amount of memory used by VASP MPI-rank0   100580. kBytes
=======================================================================

   base      :      30000. kBytes
   nonl-proj :       8229. kBytes
   fftplans  :      18352. kBytes
   grid      :      30208. kBytes
   one-center:          6. kBytes
   wavefun   :      13785. kBytes
 
  
  
 General timing and accounting informations for this job:
 ========================================================
  
                  Total CPU time used (sec):      336.457
                            User time (sec):      312.082
                          System time (sec):       24.375
                         Elapsed time (sec):      340.469
  
                   Maximum memory used (kb):      821416.
                   Average memory used (kb):          N/A
  
                          Minor page faults:       442465
                          Major page faults:          193
                 Voluntary context switches:         3522
