 vasp.6.2.1 16May21 (build Nov 06 2021 14:46:37) complex                        
  
 executed on             LinuxIFC date 2025.03.03  18:46:52
 running on  112 total cores
 distrk:  each k-point on  112 cores,    1 groups
 distr:  one band on NCORE=  28 cores,    4 groups


--------------------------------------------------------------------------------------------------------


 INCAR:
   NPAR = 4
   ALGO = Conjugate
   ISMEAR = 0
   SIGMA = 0.01
   PREC = Accurate
   EDIFF = 1E-7
   ENCUT = 1000
   ISIF = 0
   GGA = ML
   LUSE_VDW = .TRUE.
   ZAB_VDW = -1.8867
   AGGAC = 0.0000
   LASPH = .TRUE.
   SYMPREC = 1E-7
   LWAVE = .FALSE.
   LCHARGE = .FALSE.

 POTCAR:    PAW_PBE C_h 06Feb2004                 
 POTCAR:    PAW_PBE O_h 06Feb2004                 
 -----------------------------------------------------------------------------
|                                                                             |
|           W    W    AA    RRRRR   N    N  II  N    N   GGGG   !!!           |
|           W    W   A  A   R    R  NN   N  II  NN   N  G    G  !!!           |
|           W    W  A    A  R    R  N N  N  II  N N  N  G       !!!           |
|           W WW W  AAAAAA  RRRRR   N  N N  II  N  N N  G  GGG   !            |
|           WW  WW  A    A  R   R   N   NN  II  N   NN  G    G                |
|           W    W  A    A  R    R  N    N  II  N    N   GGGG   !!!           |
|                                                                             |
|     For optimal performance we recommend to set                             |
|       NCORE = 2 up to number-of-cores-per-socket                            |
|     NCORE specifies how many cores store one orbital (NPAR=cpu/NCORE).      |
|     This setting can greatly improve the performance of VASP for DFT.       |
|     The default, NCORE=1 might be grossly inefficient on modern             |
|     multi-core architectures or massively parallel machines. Do your        |
|     own testing! More info at https://www.vasp.at/wiki/index.php/NCORE      |
|     Unfortunately you need to use the default for GW and RPA                |
|     calculations (for HF NCORE is supported but not extensively tested      |
|     yet).                                                                   |
|                                                                             |
 -----------------------------------------------------------------------------

 -----------------------------------------------------------------------------
|                                                                             |
|               ----> ADVICE to this user running VASP <----                  |
|                                                                             |
|     You have switched on vdW-DFT.                                           |
|     This routine was written and supplied by Jiri Klimes. We recommend      |
|     that you carefully read and cite the following publications:            |
|       J. Klimes, D.R. Bowler, A. Michelides                                 |
|          J. Phys.: Cond Matt. 22 022201 (2010)                              |
|       J. Klimes, D.R. Bowler, A. Michelides                                 |
|          Phys. Rev. B. 83, 195131 (2011)                                    |
|     and references therein.                                                 |
|                                                                             |
 -----------------------------------------------------------------------------

 POTCAR:    PAW_PBE C_h 06Feb2004                 
   VRHFIN =C: s2p2                                                                                  
   LEXCH  = PE                                                                                      
   EATOM  =   147.1560 eV,   10.8157 Ry                                                             
                                                                                                    
   TITEL  = PAW_PBE C_h 06Feb2004                                                                   
   LULTRA =        F    use ultrasoft PP ?                                                          
   IUNSCR =        1    unscreen: 0-lin 1-nonlin 2-no                                               
   RPACOR =    0.800    partial core radius                                                         
   POMASS =   12.011; ZVAL   =    4.000    mass and valenz                                          
   RCORE  =    1.100    outmost cutoff radius                                                       
   RWIGS  =    1.630; RWIGS  =    0.863    wigner-seitz radius (au A)                               
   ENMAX  =  700.000; ENMIN  =  500.000 eV                                                          
   ICORE  =        2    local potential                                                             
   LCOR   =        T    correct aug charges                                                         
   LPAW   =        T    paw PP                                                                      
   EAUG   =  946.768                                                                                
   DEXC   =    0.000                                                                                
   RMAX   =    1.128    core radius for proj-oper                                                   
   RAUG   =    1.300    factor for augmentation sphere                                              
   RDEP   =    1.162    radius for radial grids                                                     
   RDEPT  =    1.088    core radius for aug-charge                                                  
                                                                                                    
   Atomic configuration                                                                             
    4 entries                                                                                       
     n  l   j            E        occ.                                                              
     1  0  0.50      -273.3789   2.0000                                                             
     2  0  0.50       -13.7508   2.0000                                                             
     2  1  0.50        -5.2854   2.0000                                                             
     3  2  1.50        -5.4423   0.0000                                                             
   Description                                                                                      
     l       E           TYP  RCUT    TYP  RCUT                                                     
     0    -13.7508458     23  1.100                                                                 
     0     -8.2022199     23  1.100                                                                 
     1     -5.2854383     23  1.100                                                                 
     1      1.1560700     23  1.100                                                                 
     2     -5.4423304      7  1.100                                                                 
  local pseudopotential read in
  partial core-charges read in
  partial kinetic energy density read in
  atomic valenz-charges read in
  non local Contribution for L=           0  read in
    real space projection operators read in
  non local Contribution for L=           0  read in
    real space projection operators read in
  non local Contribution for L=           1  read in
    real space projection operators read in
  non local Contribution for L=           1  read in
    real space projection operators read in
    PAW grid and wavefunctions read in
 
   number of l-projection  operators is LMAX  =           4
   number of lm-projection operators is LMMAX =           8
 
 POTCAR:    PAW_PBE O_h 06Feb2004                 
   VRHFIN =O: s2p4                                                                                  
   LEXCH  = PE                                                                                      
   EATOM  =   432.3788 eV,   31.7789 Ry                                                             
                                                                                                    
   TITEL  = PAW_PBE O_h 06Feb2004                                                                   
   LULTRA =        F    use ultrasoft PP ?                                                          
   IUNSCR =        1    unscreen: 0-lin 1-nonlin 2-no                                               
   RPACOR =    0.800    partial core radius                                                         
   POMASS =   16.000; ZVAL   =    6.000    mass and valenz                                          
   RCORE  =    1.100    outmost cutoff radius                                                       
   RWIGS  =    1.400; RWIGS  =    0.741    wigner-seitz radius (au A)                               
   ENMAX  =  700.000; ENMIN  =  500.000 eV                                                          
   ICORE  =        2    local potential                                                             
   LCOR   =        T    correct aug charges                                                         
   LPAW   =        T    paw PP                                                                      
   EAUG   =  888.804                                                                                
   DEXC   =    0.000                                                                                
   RMAX   =    1.128    core radius for proj-oper                                                   
   RAUG   =    1.300    factor for augmentation sphere                                              
   RDEP   =    1.125    radius for radial grids                                                     
   RDEPT  =    1.088    core radius for aug-charge                                                  
                                                                                                    
   Atomic configuration                                                                             
    4 entries                                                                                       
     n  l   j            E        occ.                                                              
     1  0  0.50      -514.6923   2.0000                                                             
     2  0  0.50       -23.9615   2.0000                                                             
     2  1  0.50        -9.0305   4.0000                                                             
     3  2  1.50        -9.5241   0.0000                                                             
   Description                                                                                      
     l       E           TYP  RCUT    TYP  RCUT                                                     
     0    -23.9615319     23  1.100                                                                 
     0    -25.3221145     23  1.100                                                                 
     1     -9.0304911     23  1.100                                                                 
     1     -5.4802209     23  1.100                                                                 
     2     -9.5240782      7  1.100                                                                 
  local pseudopotential read in
  partial core-charges read in
  partial kinetic energy density read in
  atomic valenz-charges read in
  non local Contribution for L=           0  read in
    real space projection operators read in
  non local Contribution for L=           0  read in
    real space projection operators read in
  non local Contribution for L=           1  read in
    real space projection operators read in
  non local Contribution for L=           1  read in
    real space projection operators read in
    PAW grid and wavefunctions read in
 
   number of l-projection  operators is LMAX  =           4
   number of lm-projection operators is LMMAX =           8
 
 -----------------------------------------------------------------------------
|                                                                             |
|               ----> ADVICE to this user running VASP <----                  |
|                                                                             |
|     You have a (more or less) 'large supercell' and for larger cells it     |
|     might be more efficient to use real-space projection operators.         |
|     Therefore, try LREAL= Auto in the INCAR file.                           |
|     Mind: For very accurate calculation, you might also keep the            |
|     reciprocal projection scheme (i.e. LREAL=.FALSE.).                      |
|                                                                             |
 -----------------------------------------------------------------------------

 -----------------------------------------------------------------------------
|                                                                             |
|               ----> ADVICE to this user running VASP <----                  |
|                                                                             |
|     You enforced a specific xc type in the INCAR file but a different       |
|     type was found in the POTCAR file.                                      |
|     I HOPE YOU KNOW WHAT YOU ARE DOING!                                     |
|                                                                             |
 -----------------------------------------------------------------------------

  PAW_PBE C_h 06Feb2004                 :
 energy of atom  1       EATOM= -147.1560
 kinetic energy error for atom=    0.0031 (will be added to EATOM!!)
  PAW_PBE O_h 06Feb2004                 :
 energy of atom  2       EATOM= -432.3788
 kinetic energy error for atom=    0.0171 (will be added to EATOM!!)
 
 
 POSCAR:  C  O
  positions in cartesian coordinates
  No initial velocities read in
 exchange correlation table for  LEXCH =       44
   RHO(1)=    0.500       N(1)  =     2000
   RHO(2)=  100.500       N(2)  =     4000
 


--------------------------------------------------------------------------------------------------------


 ion  position               nearest neighbor table
   1  0.972  0.000  0.001-  50 1.42   2 1.42  42 1.42
   2  0.039  0.134  0.001-   5 1.42   7 1.42   1 1.42
   3  0.172  0.000  0.001-  42 1.42  44 1.42   4 1.42
   4  0.239  0.134  0.000-   7 1.42   3 1.42  23 1.42
   5  0.972  0.200  0.001-   6 1.42   2 1.42  34 1.42
   6  0.039  0.334  0.001-   5 1.42  21 1.42  11 1.42
   7  0.172  0.200  0.000-   8 1.42   2 1.42   4 1.42
   8  0.239  0.334  0.000-  13 1.42   7 1.42  21 1.42
   9  0.372  0.000  0.001-  10 1.42  44 1.42  46 1.42
  10  0.439  0.134  0.000-  27 1.42   9 1.42  23 1.42
  11  0.972  0.400  0.001-  12 1.42  36 1.42   6 1.42
  12  0.039  0.534  0.001-  25 1.42  11 1.42  17 1.42
  13  0.372  0.400  0.000-   8 1.42  14 1.42  24 1.42
  14  0.439  0.534  0.000-  13 1.42  29 1.42  19 1.42
  15  0.572  0.000  0.001-  46 1.42  16 1.42  48 1.42
  16  0.639  0.134  0.001-  15 1.42  35 1.42  27 1.42
  17  0.972  0.600  0.001-  38 1.42  18 1.42  12 1.42
  18  0.039  0.734  0.001-  43 1.42  41 1.42  17 1.42
  19  0.572  0.600  0.001-  14 1.42  20 1.42  32 1.42
  20  0.639  0.734  0.001-  49 1.42  19 1.42  47 1.42
  21  0.172  0.400  0.000-  22 1.42   8 1.42   6 1.42
  22  0.239  0.534  0.000-  21 1.42  29 1.42  25 1.42
  23  0.372  0.200  0.000-  10 1.42   4 1.42  24 1.42
  24  0.439  0.334  0.000-  13 1.42  31 1.42  23 1.42
  25  0.172  0.600  0.001-  26 1.42  12 1.42  22 1.42
  26  0.239  0.734  0.001-  25 1.42  45 1.42  43 1.42
  27  0.572  0.200  0.001-  10 1.42  28 1.42  16 1.42
  28  0.639  0.334  0.001-  27 1.42  37 1.42  31 1.42
  29  0.372  0.600  0.000-  22 1.42  14 1.42  30 1.42
  30  0.439  0.734  0.001-  47 1.42  29 1.42  45 1.42
  31  0.572  0.400  0.000-  32 1.42  28 1.42  24 1.42
  32  0.639  0.534  0.001-  31 1.42  39 1.42  19 1.42
  33  0.772  0.000  0.001-  34 1.42  48 1.42  50 1.42
  34  0.839  0.134  0.001-  33 1.42   5 1.42  35 1.42
  35  0.772  0.200  0.001-  36 1.42  16 1.42  34 1.42
  36  0.839  0.334  0.001-  35 1.42  11 1.42  37 1.42
  37  0.772  0.400  0.001-  28 1.42  38 1.42  36 1.42
  38  0.839  0.534  0.001-  17 1.42  37 1.42  39 1.42
  39  0.772  0.600  0.001-  40 1.42  38 1.42  32 1.42
  40  0.839  0.734  0.001-  39 1.42  49 1.42  41 1.42
  41  0.972  0.800  0.001-  18 1.42  42 1.42  40 1.42
  42  0.039  0.934  0.001-   3 1.42  41 1.42   1 1.42
  43  0.172  0.800  0.001-  18 1.42  44 1.42  26 1.42
  44  0.239  0.934  0.001-   9 1.42  43 1.42   3 1.42
  45  0.372  0.800  0.001-  26 1.42  46 1.42  30 1.42
  46  0.439  0.934  0.001-  15 1.42  45 1.42   9 1.42
  47  0.572  0.800  0.001-  30 1.42  48 1.42  20 1.42
  48  0.639  0.934  0.001-  47 1.42  33 1.42  15 1.42
  49  0.772  0.800  0.001-  50 1.42  20 1.42  40 1.42
  50  0.839  0.934  0.001-  49 1.42   1 1.42  33 1.42
  51  0.373  0.251  0.281-  52 1.18  53 1.18
  52  0.421  0.189  0.284-  51 1.18
  53  0.325  0.313  0.278-  51 1.18
 
  LATTYP: Found a hexagonal cell.
 ALAT       =    12.3250000000
 C/A-ratio  =     1.6227180527
  
  Lattice vectors:
  
 A1 = (  12.3250000000,   0.0000000000,   0.0000000000)
 A2 = (  -6.1625000000,  10.6737631016,   0.0000000000)
 A3 = (   0.0000000000,   0.0000000000,  20.0000000000)


Analysis of symmetry for initial positions (statically):
=====================================================================
 Subroutine PRICEL returns:
 Original cell was already a primitive cell.
 

 Routine SETGRP: Setting up the symmetry group for a 
 hexagonal supercell.


 Subroutine GETGRP returns: Found  1 space group operations
 (whereof  1 operations were pure point group operations)
 out of a pool of 24 trial point group operations.


The static configuration has the point symmetry C_1 .


Analysis of symmetry for dynamics (positions and initial velocities):
=====================================================================
 Subroutine PRICEL returns:
 Original cell was already a primitive cell.
 

 Routine SETGRP: Setting up the symmetry group for a 
 hexagonal supercell.


 Subroutine GETGRP returns: Found  1 space group operations
 (whereof  1 operations were pure point group operations)
 out of a pool of 24 trial point group operations.


The dynamic configuration has the point symmetry C_1 .


 Subroutine INISYM returns: Found  1 space group operations
 (whereof  1 operations are pure point group operations),
 and found     1 'primitive' translations


----------------------------------------------------------------------------------------

                                     Primitive cell                                     

  volume of cell :    2631.0826

  direct lattice vectors                    reciprocal lattice vectors
    12.325000000  0.000000000  0.000000000     0.081135903  0.046843835  0.000000000
    -6.162500000 10.673763102  0.000000000     0.000000000  0.093687670  0.000000000
     0.000000000  0.000000000 20.000000000     0.000000000  0.000000000  0.050000000

  length of vectors
    12.325000000 12.325000000 20.000000000     0.093687670  0.093687670  0.050000000

  position of ions in fractional coordinates (direct lattice)
     0.972450841  0.000320818  0.000708389
     0.039118382  0.133659505  0.000550216
     0.172443627  0.000295449  0.000624535
     0.239096278  0.133647917  0.000320585
     0.972452058  0.200322012  0.000606523
     0.039128360  0.333643771  0.000555187
     0.172451764  0.200354552  0.000273959
     0.239124359  0.333665720  0.000090325
     0.372465565  0.000324403  0.000567391
     0.439137473  0.133619939  0.000322923
     0.972449824  0.400309362  0.000684513
     0.039124981  0.533636789  0.000716763
     0.372416176  0.400329481  0.000000000
     0.439099602  0.533638981  0.000290518
     0.572443676  0.000312125  0.000699475
     0.639110207  0.133631751  0.000684093
     0.972452703  0.600305653  0.000800361
     0.039124495  0.733640359  0.000818141
     0.572433471  0.600306242  0.000503618
     0.639111888  0.733641879  0.000659881
     0.172454630  0.400318228  0.000361306
     0.239120185  0.533636548  0.000473136
     0.372459750  0.200295993  0.000111246
     0.439107096  0.333673419  0.000069702
     0.172452155  0.600311506  0.000655425
     0.239123371  0.733638574  0.000718912
     0.572431082  0.200289171  0.000516621
     0.639112773  0.333618630  0.000577970
     0.372439808  0.600308022  0.000453556
     0.439116090  0.733637858  0.000617737
     0.572469358  0.400320504  0.000424897
     0.639119408  0.533650873  0.000574513
     0.772445723  0.000315427  0.000745201
     0.839116277  0.133640203  0.000719132
     0.772440513  0.200307432  0.000726291
     0.839120241  0.333635728  0.000731834
     0.772446320  0.400298367  0.000728722
     0.839118980  0.533633964  0.000776376
     0.772456143  0.600308173  0.000744639
     0.839115033  0.733643180  0.000789390
     0.972455313  0.800305582  0.000815291
     0.039114714  0.933643289  0.000747563
     0.172457971  0.800312211  0.000779216
     0.239134551  0.933647193  0.000681063
     0.372451396  0.800316674  0.000689249
     0.439124489  0.933644769  0.000676788
     0.572441101  0.800310054  0.000668168
     0.639115067  0.933638985  0.000734556
     0.772445098  0.800313187  0.000752577
     0.839116614  0.933644338  0.000758538
     0.373021009  0.251226878  0.280615512
     0.420879805  0.189313152  0.283836605
     0.325156981  0.313167186  0.277642769

  ion indices of the primitive-cell ions
   primitive index   ion index
                 1           1
                 2           2
                 3           3
                 4           4
                 5           5
                 6           6
                 7           7
                 8           8
                 9           9
                10          10
                11          11
                12          12
                13          13
                14          14
                15          15
                16          16
                17          17
                18          18
                19          19
                20          20
                21          21
                22          22
                23          23
                24          24
                25          25
                26          26
                27          27
                28          28
                29          29
                30          30
                31          31
                32          32
                33          33
                34          34
                35          35
                36          36
                37          37
                38          38
                39          39
                40          40
                41          41
                42          42
                43          43
                44          44
                45          45
                46          46
                47          47
                48          48
                49          49
                50          50
                51          51
                52          52
                53          53

----------------------------------------------------------------------------------------

 
 
 KPOINTS: auto                                    

Automatic generation of k-mesh.
 Grid dimensions read from file:
 generate k-points for:    1    1    1

 Generating k-lattice:

  Cartesian coordinates                     Fractional coordinates (reciprocal lattice)
     0.081135903  0.046843835  0.000000000     1.000000000 -0.000000000  0.000000000
     0.000000000  0.093687670  0.000000000     0.000000000  1.000000000  0.000000000
     0.000000000  0.000000000  0.050000000     0.000000000  0.000000000  1.000000000

  Length of vectors
     0.093687670  0.093687670  0.050000000

  Shift w.r.t. Gamma in fractional coordinates (k-lattice)
     0.000000000  0.000000000  0.000000000

 
 Subroutine IBZKPT returns following result:
 ===========================================
 
 Found      1 irreducible k-points:
 
 Following reciprocal coordinates:
            Coordinates               Weight
  0.000000  0.000000  0.000000      1.000000
 
 Following cartesian coordinates:
            Coordinates               Weight
  0.000000  0.000000  0.000000      1.000000
 


--------------------------------------------------------------------------------------------------------




 Dimension of arrays:
   k-points           NKPTS =      1   k-points in BZ     NKDIM =      1   number of bands    NBANDS=    136
   number of dos      NEDOS =    301   number of ions     NIONS =     53
   non local maximal  LDIM  =      4   non local SUM 2l+1 LMDIM =      8
   total plane-waves  NPLWV = ******
   max r-space proj   IRMAX =      1   max aug-charges    IRDMAX=   9736
   dimension x,y,z NGX =   128 NGY =  128 NGZ =  210
   dimension x,y,z NGXF=   256 NGYF=  256 NGZF=  420
   support grid    NGXF=   256 NGYF=  256 NGZF=  420
   ions per type =              51   2
   NGX,Y,Z   is equivalent  to a cutoff of  17.27, 17.27, 17.46 a.u.
   NGXF,Y,Z  is equivalent  to a cutoff of  34.53, 34.53, 34.91 a.u.

 SYSTEM =  unknown system                          
 POSCAR =   C  O                                   

 Startparameter for this run:
   NWRITE =      2    write-flag & timer
   PREC   = accura    normal or accurate (medium, high low for compatibility)
   ISTART =      0    job   : 0-new  1-cont  2-samecut
   ICHARG =      2    charge: 1-file 2-atom 10-const
   ISPIN  =      1    spin polarized calculation?
   LNONCOLLINEAR =      F non collinear calculations
   LSORBIT =      F    spin-orbit coupling
   INIWAV =      1    electr: 0-lowe 1-rand  2-diag
   LASPH  =      T    aspherical Exc in radial PAW
 Electronic Relaxation 1
   ENCUT  = 1000.0 eV  73.50 Ry    8.57 a.u.  31.78 31.78 51.57*2*pi/ulx,y,z
   ENINI  = 1000.0     initial cutoff
   ENAUG  =  946.8 eV  augmentation charge cutoff
   NELM   =     60;   NELMIN=  2; NELMDL= -5     # of ELM steps 
   EDIFF  = 0.1E-06   stopping-criterion for ELM
   LREAL  =      F    real-space projection
   NLSPLINE    = F    spline interpolate recip. space projectors
   LCOMPAT=      F    compatible to vasp.4.4
   GGA_COMPAT  = T    GGA compatible to vasp.4.4-vasp.4.6
   LMAXPAW     = -100 max onsite density
   LMAXMIX     =    2 max onsite mixed and CHGCAR
   VOSKOWN=      0    Vosko Wilk Nusair interpolation
   ROPT   =    0.00000   0.00000
 Ionic relaxation
   EDIFFG = 0.1E-05   stopping-criterion for IOM
   NSW    =      0    number of steps for IOM
   NBLOCK =      1;   KBLOCK =      1    inner block; outer block 
   IBRION =     -1    ionic relax: 0-MD 1-quasi-New 2-CG
   NFREE  =      0    steps in history (QN), initial steepest desc. (CG)
   ISIF   =      0    stress and relaxation
   IWAVPR =     10    prediction:  0-non 1-charg 2-wave 3-comb
   ISYM   =      2    0-nonsym 1-usesym 2-fastsym
   LCORR  =      T    Harris-Foulkes like correction to forces

   POTIM  = 0.5000    time-step for ionic-motion
   TEIN   =    0.0    initial temperature
   TEBEG  =    0.0;   TEEND  =   0.0 temperature during run
   SMASS  =  -3.00    Nose mass-parameter (am)
   estimated Nose-frequenzy (Omega)   =  0.10E-29 period in steps = 0.13E+47 mass=  -0.347E-26a.u.
   SCALEE = 1.0000    scale energy and forces
   NPACO  =    256;   APACO  = 16.0  distance and # of slots for P.C.
   PSTRESS=    0.0 pullay stress

  Mass of Ions in am
   POMASS =  12.01 16.00
  Ionic Valenz
   ZVAL   =   4.00  6.00
  Atomic Wigner-Seitz radii
   RWIGS  =  -1.00 -1.00
  virtual crystal weights 
   VCA    =   1.00  1.00
   NELECT =     216.0000    total number of electrons
   NUPDOWN=      -1.0000    fix difference up-down

 DOS related values:
   EMIN   =  10.00;   EMAX   =-10.00  energy-range for DOS
   EFERMI =   0.00
   ISMEAR =     0;   SIGMA  =   0.01  broadening in eV -4-tet -1-fermi 0-gaus

 Electronic relaxation 2 (details)
   IALGO  =     58    algorithm
   LDIAG  =      T    sub-space diagonalisation (order eigenvalues)
   LSUBROT=      F    optimize rotation matrix (better conditioning)
   TURBO    =      0    0=normal 1=particle mesh
   IRESTART =      0    0=no restart 2=restart with 2 vectors
   NREBOOT  =      0    no. of reboots
   NMIN     =      0    reboot dimension
   EREF     =   0.00    reference energy to select bands
   IMIX   =      4    mixing-type and parameters
     AMIX     =   0.40;   BMIX     =  1.00
     AMIX_MAG =   1.60;   BMIX_MAG =  1.00
     AMIN     =   0.10
     WC   =   100.;   INIMIX=   1;  MIXPRE=   1;  MAXMIX= -45

 Intra band minimization:
   WEIMIN = 0.0000     energy-eigenvalue tresh-hold
   EBREAK =  0.18E-09  absolut break condition
   DEPER  =   0.30     relativ break condition  

   TIME   =   0.40     timestep for ELM

  volume/ion in A,a.u.               =      49.64       335.01
  Fermi-wavevector in a.u.,A,eV,Ry     =   0.711510  1.344560  6.887909  0.506247
  Thomas-Fermi vector in A             =   1.798641
 
 Write flags
   LWAVE        =      F    write WAVECAR
   LDOWNSAMPLE  =      F    k-point downsampling of WAVECAR
   LCHARG       =      T    write CHGCAR
   LVTOT        =      F    write LOCPOT, total local potential
   LVHAR        =      F    write LOCPOT, Hartree potential only
   LELF         =      F    write electronic localiz. function (ELF)
   LORBIT       =      0    0 simple, 1 ext, 2 COOP (PROOUT), +10 PAW based schemes


 Dipole corrections
   LMONO  =      F    monopole corrections only (constant potential shift)
   LDIPOL =      F    correct potential (dipole corrections)
   IDIPOL =      0    1-x, 2-y, 3-z, 4-all directions 
   EPSILON=  1.0000000 bulk dielectric constant

 Exchange correlation treatment:
   GGA     =    ML    GGA type
   LEXCH   =    44    internal setting for exchange type
   VOSKOWN=      0    Vosko Wilk Nusair interpolation
   LHFCALC =     F    Hartree Fock is set to
   LHFONE  =     F    Hartree Fock one center treatment
   AEXX    =    0.0000 exact exchange contribution

 vdW DFT:
   LUSE_VDW   =     T    switch on vdW DFT
   Zab_VDW    =******    correlation parameter
   PARAM1     =0.1234
   PARAM2     =1.0000
   PARAM3     =0.0000
   -- rVV10 --
   BPARAM     = 6.3000
   CPARAM     = 0.0093

 Linear response parameters
   LEPSILON=     F    determine dielectric tensor
   LRPA    =     F    only Hartree local field effects (RPA)
   LNABLA  =     F    use nabla operator in PAW spheres
   LVEL    =     F    velocity operator in full k-point grid
   LINTERFAST=   F  fast interpolation
   KINTER  =     0    interpolate to denser k-point grid
   CSHIFT  =0.1000    complex shift for real part using Kramers Kronig
   OMEGAMAX=  -1.0    maximum frequency
   DEG_THRESHOLD= 0.2000000E-02 threshold for treating states as degnerate
   RTIME   =   -0.100 relaxation time in fs
  (WPLASMAI=    0.000 imaginary part of plasma frequency in eV, 0.658/RTIME)
   DFIELD  = 0.0000000 0.0000000 0.0000000 field for delta impulse in time
 
 Orbital magnetization related:
   ORBITALMAG=     F  switch on orbital magnetization
   LCHIMAG   =     F  perturbation theory with respect to B field
   DQ        =  0.001000  dq finite difference perturbation B field
   LLRAUG    =     F  two centre corrections for induced B field



--------------------------------------------------------------------------------------------------------


 Static calculation
 charge density and potential will be updated during run
 non-spin polarized calculation
 Conjugate gradient for all bands (Freysoldt, et al. PRB 79, 241103 (2009))
 preconditioned conjugated gradient                                        
 perform sub-space diagonalisation
    before iterative eigenvector-optimisation
 modified Broyden-mixing scheme, WC =      100.0
 initial mixing is a Kerker type mixing with AMIX =  0.4000 and BMIX =      1.0000
 Hartree-type preconditioning will be used
 using additional bands           28
 reciprocal scheme for non local part
 use partial core corrections
 no Harris-corrections to forces 
 use gradient corrections 
 use of overlap-Matrix (Vanderbilt PP)
 Gauss-broadening in eV      SIGMA  =   0.01


--------------------------------------------------------------------------------------------------------


  energy-cutoff  :     1000.00
  volume of cell :     2631.08
      direct lattice vectors                 reciprocal lattice vectors
    12.325000000  0.000000000  0.000000000     0.081135903  0.046843835  0.000000000
    -6.162500000 10.673763102  0.000000000     0.000000000  0.093687670  0.000000000
     0.000000000  0.000000000 20.000000000     0.000000000  0.000000000  0.050000000

  length of vectors
    12.325000000 12.325000000 20.000000000     0.093687670  0.093687670  0.050000000


 
 k-points in units of 2pi/SCALE and weight: auto                                    
   0.00000000  0.00000000  0.00000000       1.000
 
 k-points in reciprocal lattice and weights: auto                                    
   0.00000000  0.00000000  0.00000000       1.000
 
 position of ions in fractional coordinates (direct lattice) 
   0.97245084  0.00032082  0.00070839
   0.03911838  0.13365950  0.00055022
   0.17244363  0.00029545  0.00062454
   0.23909628  0.13364792  0.00032058
   0.97245206  0.20032201  0.00060652
   0.03912836  0.33364377  0.00055519
   0.17245176  0.20035455  0.00027396
   0.23912436  0.33366572  0.00009033
   0.37246557  0.00032440  0.00056739
   0.43913747  0.13361994  0.00032292
   0.97244982  0.40030936  0.00068451
   0.03912498  0.53363679  0.00071676
   0.37241618  0.40032948  0.00000000
   0.43909960  0.53363898  0.00029052
   0.57244368  0.00031213  0.00069947
   0.63911021  0.13363175  0.00068409
   0.97245270  0.60030565  0.00080036
   0.03912449  0.73364036  0.00081814
   0.57243347  0.60030624  0.00050362
   0.63911189  0.73364188  0.00065988
   0.17245463  0.40031823  0.00036131
   0.23912018  0.53363655  0.00047314
   0.37245975  0.20029599  0.00011125
   0.43910710  0.33367342  0.00006970
   0.17245216  0.60031151  0.00065542
   0.23912337  0.73363857  0.00071891
   0.57243108  0.20028917  0.00051662
   0.63911277  0.33361863  0.00057797
   0.37243981  0.60030802  0.00045356
   0.43911609  0.73363786  0.00061774
   0.57246936  0.40032050  0.00042490
   0.63911941  0.53365087  0.00057451
   0.77244572  0.00031543  0.00074520
   0.83911628  0.13364020  0.00071913
   0.77244051  0.20030743  0.00072629
   0.83912024  0.33363573  0.00073183
   0.77244632  0.40029837  0.00072872
   0.83911898  0.53363396  0.00077638
   0.77245614  0.60030817  0.00074464
   0.83911503  0.73364318  0.00078939
   0.97245531  0.80030558  0.00081529
   0.03911471  0.93364329  0.00074756
   0.17245797  0.80031221  0.00077922
   0.23913455  0.93364719  0.00068106
   0.37245140  0.80031667  0.00068925
   0.43912449  0.93364477  0.00067679
   0.57244110  0.80031005  0.00066817
   0.63911507  0.93363899  0.00073456
   0.77244510  0.80031319  0.00075258
   0.83911661  0.93364434  0.00075854
   0.37302101  0.25122688  0.28061551
   0.42087980  0.18931315  0.28383660
   0.32515698  0.31316719  0.27764277
 
 position of ions in cartesian coordinates  (Angst):
  11.98347958  0.00342433  0.01416777
  -0.34154264  1.42664989  0.01100432
   2.12354700  0.00315355  0.01249070
   2.12325634  1.42652621  0.00641170
  10.75098721  2.13818970  0.01213047
  -1.57382270  3.56123457  0.01110375
   0.89078307  2.13853702  0.00547917
   0.89099273  3.56146885  0.00180651
   4.58863896  0.00346260  0.01134782
   4.58893648  1.42622757  0.00645846
   9.51853763  4.27280730  0.01369027
  -2.80632132  5.69591267  0.01433526
   2.12299894  4.27302204  0.00000000
   2.12335237  5.69593607  0.00581036
   7.05344483  0.00333155  0.01398950
   7.05352764  1.42635365  0.01368187
   8.28609598  6.40752033  0.01600723
  -4.03884931  7.83070339  0.01636283
   3.35585531  6.40752662  0.01007237
   3.35598594  7.83071962  0.01319763
  -0.34145776  4.27290193  0.00722612
  -0.34137895  5.69591010  0.00946273
   3.35624236  2.13791198  0.00222492
   3.35573251  3.56155103  0.00139405
  -1.57394684  6.40758280  0.01310850
  -1.57385216  7.83068434  0.01437823
   5.82093107  2.13783916  0.01033241
   5.82114012  3.56096622  0.01155939
   0.89092245  6.40754561  0.00907111
   0.89106251  7.83067670  0.01235474
   4.58870974  4.27292622  0.00849795
   4.58852320  5.69606300  0.01149026
   9.51844972  0.00336679  0.01490402
   9.51855036  1.42644387  0.01438264
   8.28593477  2.13803408  0.01452582
   8.28612680  3.56114872  0.01463668
   7.05356221  4.27268994  0.01457444
   7.05362213  5.69588251  0.01552751
   5.82112285  6.40754723  0.01489279
   5.82101669  7.83073350  0.01578780
   7.05362858  8.54227219  0.01630582
  -5.27148792  9.96548729  0.01495127
  -2.80637951  8.54234295  0.01558431
  -2.80626749  9.96552896  0.01362126
  -0.34148805  8.54239058  0.01378498
  -0.34137657  9.96550309  0.01353576
   2.12342586  8.54231992  0.01336337
   2.12354296  9.96544135  0.01469111
   4.58845581  8.54235337  0.01505154
   4.58852904  9.96549848  0.01517076
   3.04929830  2.68153618  5.61231024
   4.02070129  2.02068374  5.67673210
   2.07766701  3.34267235  5.55285537
 


--------------------------------------------------------------------------------------------------------


 k-point   1 :   0.0000 0.0000 0.0000  plane waves:  189031

 maximum and minimum number of plane-waves per node :      6755     6748

 maximum number of plane-waves:    189031
 maximum index in each direction: 
   IXMAX=   31   IYMAX=   31   IZMAX=   51
   IXMIN=  -31   IYMIN=  -31   IZMIN=  -51


 parallel 3D FFT for wavefunctions:
    minimum data exchange during FFTs selected (reduces bandwidth)
 parallel 3D FFT for charge:
    minimum data exchange during FFTs selected (reduces bandwidth)


 total amount of memory used by VASP MPI-rank0    85439. kBytes
=======================================================================

   base      :      30000. kBytes
   nonl-proj :       6586. kBytes
   fftplans  :      14299. kBytes
   grid      :      23511. kBytes
   one-center:          6. kBytes
   wavefun   :      11037. kBytes
 
     INWAV:  cpu time    0.0000: real time    0.0000
 Broyden mixing: mesh for mixing (old mesh)
   NGX = 63   NGY = 63   NGZ =103
  (NGX  =256   NGY  =256   NGZ  =420)
  gives a total of 408807 points

 initial charge density was supplied:
 charge density of overlapping atoms calculated
 number of electron     216.0000000 magnetization 
 keeping initial charge density in first step


--------------------------------------------------------------------------------------------------------


 Maximum index for augmentation-charges          459 (set IRDMAX)


--------------------------------------------------------------------------------------------------------


 First call to EWALD:  gamma=   0.128
 Maximum number of real-space cells 3x 3x 2
 Maximum number of reciprocal cells 3x 3x 4

    FEWALD:  cpu time    0.0025: real time    0.0025


--------------------------------------- Iteration      1(   1)  ---------------------------------------


vdW kernel read from vdw_kernel.bindat
  0.0000  0.2424  0.5071  0.7962  1.1119  1.4567  1.8333  2.2446  2.6937  3.1842
  3.7199  4.3049  4.9438  5.6415  6.4036  7.2358  8.1446  9.1372 10.2212 11.4050
 12.6979 14.1099 15.6519 17.3360 19.1751 21.1837 23.3773 25.7729 28.3892 31.2465
 34.3669 37.7748 41.4965 45.5611 50.0000
 
    POTLOK:  cpu time    3.4427: real time    3.4861
    SETDIJ:  cpu time    0.0544: real time    0.0547
    TRIAL :  cpu time    1.5185: real time    1.5356
    CORREC:  cpu time    0.0007: real time    0.0007
    --------------------------------------------
      LOOP:  cpu time    5.0186: real time    5.1030

 eigenvalue-minimisations  :   272
 total energy-change (2. order) : 0.2838029E+04  (-0.1100088E+05)
 number of electron     216.0000000 magnetization 
 augmentation part      216.0000000 magnetization 

 Free energy of the ion-electron system (eV)
  ---------------------------------------------------
  alpha Z        PSCENC =        59.93625244
  Ewald energy   TEWEN  =     31337.23411091
  -Hartree energ DENC   =    -37512.68021734
  -exchange      EXHF   =         0.00000000
  -V(xc)+E(xc)   XCENC  =       352.73106182
  PAW double counting   =      6601.42964284    -6299.49404826
  entropy T*S    EENTRO =        -0.00000000
  eigenvalues    EBANDS =      -258.54014483
  atomic energy  EATOM  =      8557.41276814
  ---------------------------------------------------
  free energy    TOTEN  =      2838.02942572 eV

  energy without entropy =     2838.02942572  energy(sigma->0) =     2838.02942572


--------------------------------------------------------------------------------------------------------




--------------------------------------- Iteration      1(   2)  ---------------------------------------


    TRIAL :  cpu time    2.1376: real time    2.1605
    CORREC:  cpu time    0.0001: real time    0.0001
    --------------------------------------------
      LOOP:  cpu time    2.1402: real time    2.1969

 eigenvalue-minimisations  :   440
 total energy-change (2. order) :-0.2425672E+04  (-0.2275303E+04)
 number of electron     216.0000000 magnetization 
 augmentation part      216.0000000 magnetization 

 Free energy of the ion-electron system (eV)
  ---------------------------------------------------
  alpha Z        PSCENC =        59.93625244
  Ewald energy   TEWEN  =     31337.23411091
  -Hartree energ DENC   =    -37512.68021734
  -exchange      EXHF   =         0.00000000
  -V(xc)+E(xc)   XCENC  =       352.73106182
  PAW double counting   =      6601.42964284    -6299.49404826
  entropy T*S    EENTRO =        -0.00000000
  eigenvalues    EBANDS =     -2684.21198611
  atomic energy  EATOM  =      8557.41276814
  ---------------------------------------------------
  free energy    TOTEN  =       412.35758444 eV

  energy without entropy =      412.35758444  energy(sigma->0) =      412.35758444


--------------------------------------------------------------------------------------------------------




--------------------------------------- Iteration      1(   3)  ---------------------------------------


    TRIAL :  cpu time    1.7959: real time    1.8122
    CORREC:  cpu time    0.0001: real time    0.0001
    --------------------------------------------
      LOOP:  cpu time    1.8226: real time    1.8549

 eigenvalue-minimisations  :   352
 total energy-change (2. order) :-0.7866942E+03  (-0.7812915E+03)
 number of electron     216.0000000 magnetization 
 augmentation part      216.0000000 magnetization 

 Free energy of the ion-electron system (eV)
  ---------------------------------------------------
  alpha Z        PSCENC =        59.93625244
  Ewald energy   TEWEN  =     31337.23411091
  -Hartree energ DENC   =    -37512.68021734
  -exchange      EXHF   =         0.00000000
  -V(xc)+E(xc)   XCENC  =       352.73106182
  PAW double counting   =      6601.42964284    -6299.49404826
  entropy T*S    EENTRO =        -0.00000000
  eigenvalues    EBANDS =     -3470.90615265
  atomic energy  EATOM  =      8557.41276814
  ---------------------------------------------------
  free energy    TOTEN  =      -374.33658210 eV

  energy without entropy =     -374.33658210  energy(sigma->0) =     -374.33658210


--------------------------------------------------------------------------------------------------------




--------------------------------------- Iteration      1(   4)  ---------------------------------------


    TRIAL :  cpu time    1.7880: real time    1.8060
    CORREC:  cpu time    0.0001: real time    0.0001
    --------------------------------------------
      LOOP:  cpu time    1.8252: real time    1.8729

 eigenvalue-minimisations  :   344
 total energy-change (2. order) :-0.5629507E+02  (-0.5575476E+02)
 number of electron     216.0000000 magnetization 
 augmentation part      216.0000000 magnetization 

 Free energy of the ion-electron system (eV)
  ---------------------------------------------------
  alpha Z        PSCENC =        59.93625244
  Ewald energy   TEWEN  =     31337.23411091
  -Hartree energ DENC   =    -37512.68021734
  -exchange      EXHF   =         0.00000000
  -V(xc)+E(xc)   XCENC  =       352.73106182
  PAW double counting   =      6601.42964284    -6299.49404826
  entropy T*S    EENTRO =        -0.00000000
  eigenvalues    EBANDS =     -3527.20122123
  atomic energy  EATOM  =      8557.41276814
  ---------------------------------------------------
  free energy    TOTEN  =      -430.63165068 eV

  energy without entropy =     -430.63165068  energy(sigma->0) =     -430.63165068


--------------------------------------------------------------------------------------------------------




--------------------------------------- Iteration      1(   5)  ---------------------------------------


    TRIAL :  cpu time    1.8969: real time    1.9132
    CORREC:  cpu time    0.0001: real time    0.0001
    CHARGE:  cpu time    0.1211: real time    0.1229
    --------------------------------------------
      LOOP:  cpu time    2.0988: real time    2.1201

 eigenvalue-minimisations  :   376
 total energy-change (2. order) :-0.1654615E+01  (-0.1646342E+01)
 number of electron     216.0000000 magnetization 
 augmentation part       -0.1432411 magnetization 

 Free energy of the ion-electron system (eV)
  ---------------------------------------------------
  alpha Z        PSCENC =        59.93625244
  Ewald energy   TEWEN  =     31337.23411091
  -Hartree energ DENC   =    -37512.68021734
  -exchange      EXHF   =         0.00000000
  -V(xc)+E(xc)   XCENC  =       352.73106182
  PAW double counting   =      6601.42964284    -6299.49404826
  entropy T*S    EENTRO =        -0.00000000
  eigenvalues    EBANDS =     -3528.85583588
  atomic energy  EATOM  =      8557.41276814
  ---------------------------------------------------
  free energy    TOTEN  =      -432.28626533 eV

  energy without entropy =     -432.28626533  energy(sigma->0) =     -432.28626533


--------------------------------------------------------------------------------------------------------




--------------------------------------- Iteration      1(   6)  ---------------------------------------


    POTLOK:  cpu time    3.1359: real time    3.1610
    SETDIJ:  cpu time    0.0528: real time    0.0530
    TRIAL :  cpu time    0.8640: real time    0.8749
    CORREC:  cpu time    3.4896: real time    3.5172
    CHARGE:  cpu time    0.1166: real time    0.1178
    --------------------------------------------
      LOOP:  cpu time    7.7605: real time    7.8260

 eigenvalue-minimisations  :     0
 total energy-change (2. order) : 0.6371288E+02  (-0.2180860E+02)
 number of electron     216.0000000 magnetization 
 augmentation part       -0.2739080 magnetization 

 Free energy of the ion-electron system (eV)
  ---------------------------------------------------
  alpha Z        PSCENC =        59.93625244
  Ewald energy   TEWEN  =     31337.23411091
  -Hartree energ DENC   =    -39046.90784675
  -exchange      EXHF   =         0.00000000
  -V(xc)+E(xc)   XCENC  =       408.17531333
  PAW double counting   =     52841.67821165   -52563.84663580
  entropy T*S    EENTRO =        -0.00000000
  eigenvalues    EBANDS =     -1962.25555657
  atomic energy  EATOM  =      8557.41276814
  ---------------------------------------------------
  free energy    TOTEN  =      -368.57338266 eV

  energy without entropy =     -368.57338266  energy(sigma->0) =     -368.57338266


--------------------------------------------------------------------------------------------------------




--------------------------------------- Iteration      1(   7)  ---------------------------------------


    POTLOK:  cpu time    3.1563: real time    3.1795
    SETDIJ:  cpu time    0.0622: real time    0.0624
    TRIAL :  cpu time    0.8629: real time    0.8709
    CORREC:  cpu time    3.4872: real time    3.5178
    CHARGE:  cpu time    0.1177: real time    0.1189
    --------------------------------------------
      LOOP:  cpu time    7.7733: real time    7.8375

 eigenvalue-minimisations  :     0
 total energy-change (2. order) :-0.2192031E+02  (-0.2174486E+01)
 number of electron     216.0000000 magnetization 
 augmentation part       -0.3271418 magnetization 

 Free energy of the ion-electron system (eV)
  ---------------------------------------------------
  alpha Z        PSCENC =        59.93625244
  Ewald energy   TEWEN  =     31337.23411091
  -Hartree energ DENC   =    -38454.98928577
  -exchange      EXHF   =         0.00000000
  -V(xc)+E(xc)   XCENC  =       385.57241755
  PAW double counting   =     68611.12503979   -68326.24573227
  entropy T*S    EENTRO =        -0.00000000
  eigenvalues    EBANDS =     -2560.53926751
  atomic energy  EATOM  =      8557.41276814
  ---------------------------------------------------
  free energy    TOTEN  =      -390.49369672 eV

  energy without entropy =     -390.49369672  energy(sigma->0) =     -390.49369672


--------------------------------------------------------------------------------------------------------




--------------------------------------- Iteration      1(   8)  ---------------------------------------


    POTLOK:  cpu time    3.1313: real time    3.1550
    SETDIJ:  cpu time    0.0628: real time    0.0630
    TRIAL :  cpu time    0.8631: real time    0.8715
    CORREC:  cpu time    3.4911: real time    3.5182
    CHARGE:  cpu time    0.1163: real time    0.1175
    --------------------------------------------
      LOOP:  cpu time    7.6946: real time    7.7900

 eigenvalue-minimisations  :     0
 total energy-change (2. order) :-0.2171315E+01  (-0.5927865E+00)
 number of electron     216.0000000 magnetization 
 augmentation part       -0.3508695 magnetization 

 Free energy of the ion-electron system (eV)
  ---------------------------------------------------
  alpha Z        PSCENC =        59.93625244
  Ewald energy   TEWEN  =     31337.23411091
  -Hartree energ DENC   =    -38426.04303713
  -exchange      EXHF   =         0.00000000
  -V(xc)+E(xc)   XCENC  =       385.04896425
  PAW double counting   =     73789.59980766   -73503.59762965
  entropy T*S    EENTRO =        -0.00000000
  eigenvalues    EBANDS =     -2592.25624852
  atomic energy  EATOM  =      8557.41276814
  ---------------------------------------------------
  free energy    TOTEN  =      -392.66501190 eV

  energy without entropy =     -392.66501190  energy(sigma->0) =     -392.66501190


--------------------------------------------------------------------------------------------------------




--------------------------------------- Iteration      1(   9)  ---------------------------------------


    POTLOK:  cpu time    3.1262: real time    3.1518
    SETDIJ:  cpu time    0.0641: real time    0.0643
    TRIAL :  cpu time    0.8838: real time    0.8949
    CORREC:  cpu time    3.5092: real time    3.5358
    CHARGE:  cpu time    0.1160: real time    0.1172
    --------------------------------------------
      LOOP:  cpu time    7.7835: real time    7.8585

 eigenvalue-minimisations  :     0
 total energy-change (2. order) :-0.5930294E+00  (-0.2173088E+00)
 number of electron     216.0000000 magnetization 
 augmentation part       -0.3606918 magnetization 

 Free energy of the ion-electron system (eV)
  ---------------------------------------------------
  alpha Z        PSCENC =        59.93625244
  Ewald energy   TEWEN  =     31337.23411091
  -Hartree energ DENC   =    -38440.75907286
  -exchange      EXHF   =         0.00000000
  -V(xc)+E(xc)   XCENC  =       385.50898760
  PAW double counting   =     78074.60403282   -77788.14346966
  entropy T*S    EENTRO =        -0.00000000
  eigenvalues    EBANDS =     -2579.05165073
  atomic energy  EATOM  =      8557.41276814
  ---------------------------------------------------
  free energy    TOTEN  =      -393.25804134 eV

  energy without entropy =     -393.25804134  energy(sigma->0) =     -393.25804134


--------------------------------------------------------------------------------------------------------




--------------------------------------- Iteration      1(  10)  ---------------------------------------


    POTLOK:  cpu time    3.1341: real time    3.1603
    SETDIJ:  cpu time    0.0636: real time    0.0639
    TRIAL :  cpu time    0.8627: real time    0.8712
    CORREC:  cpu time    3.5173: real time    3.5452
    CHARGE:  cpu time    0.1169: real time    0.1181
    --------------------------------------------
      LOOP:  cpu time    7.7533: real time    7.8678

 eigenvalue-minimisations  :     0
 total energy-change (2. order) :-0.2169119E+00  (-0.9511759E-01)
 number of electron     216.0000000 magnetization 
 augmentation part       -0.3590860 magnetization 

 Free energy of the ion-electron system (eV)
  ---------------------------------------------------
  alpha Z        PSCENC =        59.93625244
  Ewald energy   TEWEN  =     31337.23411091
  -Hartree energ DENC   =    -38437.68230750
  -exchange      EXHF   =         0.00000000
  -V(xc)+E(xc)   XCENC  =       385.47594849
  PAW double counting   =     79885.66207151   -79598.90790552
  entropy T*S    EENTRO =        -0.00000000
  eigenvalues    EBANDS =     -2582.60589176
  atomic energy  EATOM  =      8557.41276814
  ---------------------------------------------------
  free energy    TOTEN  =      -393.47495329 eV

  energy without entropy =     -393.47495329  energy(sigma->0) =     -393.47495329


--------------------------------------------------------------------------------------------------------




--------------------------------------- Iteration      1(  11)  ---------------------------------------


    POTLOK:  cpu time    3.1538: real time    3.1794
    SETDIJ:  cpu time    0.0640: real time    0.0642
    TRIAL :  cpu time    0.8615: real time    0.8701
    CORREC:  cpu time    3.5363: real time    3.5692
    CHARGE:  cpu time    0.1171: real time    0.1185
    --------------------------------------------
      LOOP:  cpu time    7.7802: real time    7.8917

 eigenvalue-minimisations  :     0
 total energy-change (2. order) :-0.9479304E-01  (-0.3975591E-01)
 number of electron     216.0000000 magnetization 
 augmentation part       -0.3567052 magnetization 

 Free energy of the ion-electron system (eV)
  ---------------------------------------------------
  alpha Z        PSCENC =        59.93625244
  Ewald energy   TEWEN  =     31337.23411091
  -Hartree energ DENC   =    -38431.19617502
  -exchange      EXHF   =         0.00000000
  -V(xc)+E(xc)   XCENC  =       385.42387414
  PAW double counting   =     80041.77403986   -79754.95123366
  entropy T*S    EENTRO =        -0.00000000
  eigenvalues    EBANDS =     -2589.20338315
  atomic energy  EATOM  =      8557.41276814
  ---------------------------------------------------
  free energy    TOTEN  =      -393.56974633 eV

  energy without entropy =     -393.56974633  energy(sigma->0) =     -393.56974633


--------------------------------------------------------------------------------------------------------




--------------------------------------- Iteration      1(  12)  ---------------------------------------


    POTLOK:  cpu time    3.1559: real time    3.1797
    SETDIJ:  cpu time    0.0632: real time    0.0635
    TRIAL :  cpu time    0.8641: real time    0.8727
    CORREC:  cpu time    3.4990: real time    3.5308
    CHARGE:  cpu time    0.1174: real time    0.1185
    --------------------------------------------
      LOOP:  cpu time    7.7520: real time    7.8188

 eigenvalue-minimisations  :     0
 total energy-change (2. order) :-0.3958337E-01  (-0.1288263E-01)
 number of electron     216.0000000 magnetization 
 augmentation part       -0.3562233 magnetization 

 Free energy of the ion-electron system (eV)
  ---------------------------------------------------
  alpha Z        PSCENC =        59.93625244
  Ewald energy   TEWEN  =     31337.23411091
  -Hartree energ DENC   =    -38428.59077176
  -exchange      EXHF   =         0.00000000
  -V(xc)+E(xc)   XCENC  =       385.35893403
  PAW double counting   =     79615.51411618   -79328.74183395
  entropy T*S    EENTRO =        -0.00000000
  eigenvalues    EBANDS =     -2591.73290570
  atomic energy  EATOM  =      8557.41276814
  ---------------------------------------------------
  free energy    TOTEN  =      -393.60932970 eV

  energy without entropy =     -393.60932970  energy(sigma->0) =     -393.60932970


--------------------------------------------------------------------------------------------------------




--------------------------------------- Iteration      1(  13)  ---------------------------------------


    POTLOK:  cpu time    3.1559: real time    3.1803
    SETDIJ:  cpu time    0.0616: real time    0.0619
    TRIAL :  cpu time    0.8672: real time    0.8756
    CORREC:  cpu time    3.5017: real time    3.5302
    CHARGE:  cpu time    0.1173: real time    0.1185
    --------------------------------------------
      LOOP:  cpu time    7.7622: real time    7.8292

 eigenvalue-minimisations  :     0
 total energy-change (2. order) :-0.1286455E-01  (-0.3729421E-02)
 number of electron     216.0000000 magnetization 
 augmentation part       -0.3560143 magnetization 

 Free energy of the ion-electron system (eV)
  ---------------------------------------------------
  alpha Z        PSCENC =        59.93625244
  Ewald energy   TEWEN  =     31337.23411091
  -Hartree energ DENC   =    -38428.52986730
  -exchange      EXHF   =         0.00000000
  -V(xc)+E(xc)   XCENC  =       385.32748587
  PAW double counting   =     79223.03357964   -78936.31519125
  entropy T*S    EENTRO =        -0.00000000
  eigenvalues    EBANDS =     -2591.72133271
  atomic energy  EATOM  =      8557.41276814
  ---------------------------------------------------
  free energy    TOTEN  =      -393.62219426 eV

  energy without entropy =     -393.62219426  energy(sigma->0) =     -393.62219426


--------------------------------------------------------------------------------------------------------




--------------------------------------- Iteration      1(  14)  ---------------------------------------


    POTLOK:  cpu time    3.1457: real time    3.1726
    SETDIJ:  cpu time    0.0639: real time    0.0641
    TRIAL :  cpu time    0.8632: real time    0.8718
    CORREC:  cpu time    3.5074: real time    3.5355
    CHARGE:  cpu time    0.1159: real time    0.1171
    --------------------------------------------
      LOOP:  cpu time    7.8088: real time    7.8766

 eigenvalue-minimisations  :     0
 total energy-change (2. order) :-0.3729208E-02  (-0.1234204E-02)
 number of electron     216.0000000 magnetization 
 augmentation part       -0.3563288 magnetization 

 Free energy of the ion-electron system (eV)
  ---------------------------------------------------
  alpha Z        PSCENC =        59.93625244
  Ewald energy   TEWEN  =     31337.23411091
  -Hartree energ DENC   =    -38428.40918733
  -exchange      EXHF   =         0.00000000
  -V(xc)+E(xc)   XCENC  =       385.30620778
  PAW double counting   =     79077.28884390   -78790.59561839
  entropy T*S    EENTRO =        -0.00000000
  eigenvalues    EBANDS =     -2591.79930092
  atomic energy  EATOM  =      8557.41276814
  ---------------------------------------------------
  free energy    TOTEN  =      -393.62592347 eV

  energy without entropy =     -393.62592347  energy(sigma->0) =     -393.62592347


--------------------------------------------------------------------------------------------------------




--------------------------------------- Iteration      1(  15)  ---------------------------------------


    POTLOK:  cpu time    3.1324: real time    3.1584
    SETDIJ:  cpu time    0.0636: real time    0.0638
    TRIAL :  cpu time    0.8627: real time    0.8711
    CORREC:  cpu time    3.4916: real time    3.5203
    CHARGE:  cpu time    0.1167: real time    0.1178
    --------------------------------------------
      LOOP:  cpu time    7.6731: real time    7.8094

 eigenvalue-minimisations  :     0
 total energy-change (2. order) :-0.1234274E-02  (-0.5432494E-03)
 number of electron     216.0000000 magnetization 
 augmentation part       -0.3563618 magnetization 

 Free energy of the ion-electron system (eV)
  ---------------------------------------------------
  alpha Z        PSCENC =        59.93625244
  Ewald energy   TEWEN  =     31337.23411091
  -Hartree energ DENC   =    -38428.02602695
  -exchange      EXHF   =         0.00000000
  -V(xc)+E(xc)   XCENC  =       385.27861220
  PAW double counting   =     79032.30547678   -78745.61777989
  entropy T*S    EENTRO =        -0.00000000
  eigenvalues    EBANDS =     -2592.15057137
  atomic energy  EATOM  =      8557.41276814
  ---------------------------------------------------
  free energy    TOTEN  =      -393.62715774 eV

  energy without entropy =     -393.62715774  energy(sigma->0) =     -393.62715774


--------------------------------------------------------------------------------------------------------




--------------------------------------- Iteration      1(  16)  ---------------------------------------


    POTLOK:  cpu time    3.1412: real time    3.1646
    SETDIJ:  cpu time    0.0635: real time    0.0638
    TRIAL :  cpu time    0.8609: real time    0.8697
    CORREC:  cpu time    3.4971: real time    3.5279
    CHARGE:  cpu time    0.1167: real time    0.1178
    --------------------------------------------
      LOOP:  cpu time    7.7596: real time    7.8522

 eigenvalue-minimisations  :     0
 total energy-change (2. order) :-0.5429469E-03  (-0.2754646E-03)
 number of electron     216.0000000 magnetization 
 augmentation part       -0.3563566 magnetization 

 Free energy of the ion-electron system (eV)
  ---------------------------------------------------
  alpha Z        PSCENC =        59.93625244
  Ewald energy   TEWEN  =     31337.23411091
  -Hartree energ DENC   =    -38428.34885220
  -exchange      EXHF   =         0.00000000
  -V(xc)+E(xc)   XCENC  =       385.29111841
  PAW double counting   =     78980.18687708   -78693.50532891
  entropy T*S    EENTRO =        -0.00000000
  eigenvalues    EBANDS =     -2591.83464656
  atomic energy  EATOM  =      8557.41276814
  ---------------------------------------------------
  free energy    TOTEN  =      -393.62770069 eV

  energy without entropy =     -393.62770069  energy(sigma->0) =     -393.62770069


--------------------------------------------------------------------------------------------------------




--------------------------------------- Iteration      1(  17)  ---------------------------------------


    POTLOK:  cpu time    3.1943: real time    3.2198
    SETDIJ:  cpu time    0.0640: real time    0.0642
    TRIAL :  cpu time    0.8685: real time    0.8772
    CORREC:  cpu time    3.5093: real time    3.5401
    CHARGE:  cpu time    0.1166: real time    0.1179
    --------------------------------------------
      LOOP:  cpu time    7.8330: real time    7.9043

 eigenvalue-minimisations  :     0
 total energy-change (2. order) :-0.2752735E-03  (-0.1296616E-03)
 number of electron     216.0000000 magnetization 
 augmentation part       -0.3563321 magnetization 

 Free energy of the ion-electron system (eV)
  ---------------------------------------------------
  alpha Z        PSCENC =        59.93625244
  Ewald energy   TEWEN  =     31337.23411091
  -Hartree energ DENC   =    -38428.39648104
  -exchange      EXHF   =         0.00000000
  -V(xc)+E(xc)   XCENC  =       385.29291118
  PAW double counting   =     78930.29896073   -78643.61637894
  entropy T*S    EENTRO =        -0.00000000
  eigenvalues    EBANDS =     -2591.79011939
  atomic energy  EATOM  =      8557.41276814
  ---------------------------------------------------
  free energy    TOTEN  =      -393.62797596 eV

  energy without entropy =     -393.62797596  energy(sigma->0) =     -393.62797596


--------------------------------------------------------------------------------------------------------




--------------------------------------- Iteration      1(  18)  ---------------------------------------


    POTLOK:  cpu time    3.1486: real time    3.1720
    SETDIJ:  cpu time    0.0638: real time    0.0640
    TRIAL :  cpu time    0.8631: real time    0.8716
    CORREC:  cpu time    3.5022: real time    3.5301
    CHARGE:  cpu time    0.1175: real time    0.1186
    --------------------------------------------
      LOOP:  cpu time    7.7810: real time    7.8455

 eigenvalue-minimisations  :     0
 total energy-change (2. order) :-0.1297839E-03  (-0.4463248E-04)
 number of electron     216.0000000 magnetization 
 augmentation part       -0.3563585 magnetization 

 Free energy of the ion-electron system (eV)
  ---------------------------------------------------
  alpha Z        PSCENC =        59.93625244
  Ewald energy   TEWEN  =     31337.23411091
  -Hartree energ DENC   =    -38428.45937072
  -exchange      EXHF   =         0.00000000
  -V(xc)+E(xc)   XCENC  =       385.29477942
  PAW double counting   =     78913.74859799   -78627.06311734
  entropy T*S    EENTRO =        -0.00000000
  eigenvalues    EBANDS =     -2591.73212659
  atomic energy  EATOM  =      8557.41276814
  ---------------------------------------------------
  free energy    TOTEN  =      -393.62810575 eV

  energy without entropy =     -393.62810575  energy(sigma->0) =     -393.62810575


--------------------------------------------------------------------------------------------------------




--------------------------------------- Iteration      1(  19)  ---------------------------------------


    POTLOK:  cpu time    3.1748: real time    3.2013
    SETDIJ:  cpu time    0.0638: real time    0.0640
    TRIAL :  cpu time    0.8638: real time    0.8722
    CORREC:  cpu time    3.5117: real time    3.5394
    CHARGE:  cpu time    0.1167: real time    0.1180
    --------------------------------------------
      LOOP:  cpu time    7.7931: real time    7.8603

 eigenvalue-minimisations  :     0
 total energy-change (2. order) :-0.4472624E-04  (-0.1613041E-04)
 number of electron     216.0000000 magnetization 
 augmentation part       -0.3563796 magnetization 

 Free energy of the ion-electron system (eV)
  ---------------------------------------------------
  alpha Z        PSCENC =        59.93625244
  Ewald energy   TEWEN  =     31337.23411091
  -Hartree energ DENC   =    -38428.52074335
  -exchange      EXHF   =         0.00000000
  -V(xc)+E(xc)   XCENC  =       385.29651590
  PAW double counting   =     78924.65891454   -78637.97172596
  entropy T*S    EENTRO =        -0.00000000
  eigenvalues    EBANDS =     -2591.67424310
  atomic energy  EATOM  =      8557.41276814
  ---------------------------------------------------
  free energy    TOTEN  =      -393.62815047 eV

  energy without entropy =     -393.62815047  energy(sigma->0) =     -393.62815047


--------------------------------------------------------------------------------------------------------




--------------------------------------- Iteration      1(  20)  ---------------------------------------


    POTLOK:  cpu time    3.1377: real time    3.1614
    SETDIJ:  cpu time    0.0615: real time    0.0617
    TRIAL :  cpu time    0.8604: real time    0.8710
    CORREC:  cpu time    3.5030: real time    3.5323
    CHARGE:  cpu time    0.1166: real time    0.1178
    --------------------------------------------
      LOOP:  cpu time    7.7408: real time    7.8674

 eigenvalue-minimisations  :     0
 total energy-change (2. order) :-0.1619069E-04  (-0.6550870E-05)
 number of electron     216.0000000 magnetization 
 augmentation part       -0.3563685 magnetization 

 Free energy of the ion-electron system (eV)
  ---------------------------------------------------
  alpha Z        PSCENC =        59.93625244
  Ewald energy   TEWEN  =     31337.23411091
  -Hartree energ DENC   =    -38428.51018393
  -exchange      EXHF   =         0.00000000
  -V(xc)+E(xc)   XCENC  =       385.29634028
  PAW double counting   =     78939.37332374   -78652.68545898
  entropy T*S    EENTRO =        -0.00000000
  eigenvalues    EBANDS =     -2591.68531927
  atomic energy  EATOM  =      8557.41276814
  ---------------------------------------------------
  free energy    TOTEN  =      -393.62816666 eV

  energy without entropy =     -393.62816666  energy(sigma->0) =     -393.62816666


--------------------------------------------------------------------------------------------------------




--------------------------------------- Iteration      1(  21)  ---------------------------------------


    POTLOK:  cpu time    3.1514: real time    3.1747
    SETDIJ:  cpu time    0.0637: real time    0.0639
    TRIAL :  cpu time    0.8635: real time    0.8717
    CORREC:  cpu time    3.5104: real time    3.5402
    CHARGE:  cpu time    0.1164: real time    0.1176
    --------------------------------------------
      LOOP:  cpu time    7.7431: real time    7.8078

 eigenvalue-minimisations  :     0
 total energy-change (2. order) :-0.6537550E-05  (-0.3324232E-05)
 number of electron     216.0000000 magnetization 
 augmentation part       -0.3563523 magnetization 

 Free energy of the ion-electron system (eV)
  ---------------------------------------------------
  alpha Z        PSCENC =        59.93625244
  Ewald energy   TEWEN  =     31337.23411091
  -Hartree energ DENC   =    -38428.50146761
  -exchange      EXHF   =         0.00000000
  -V(xc)+E(xc)   XCENC  =       385.29630124
  PAW double counting   =     78948.20148707   -78661.51375566
  entropy T*S    EENTRO =        -0.00000000
  eigenvalues    EBANDS =     -2591.69386974
  atomic energy  EATOM  =      8557.41276814
  ---------------------------------------------------
  free energy    TOTEN  =      -393.62817320 eV

  energy without entropy =     -393.62817320  energy(sigma->0) =     -393.62817320


--------------------------------------------------------------------------------------------------------




--------------------------------------- Iteration      1(  22)  ---------------------------------------


    POTLOK:  cpu time    3.1470: real time    3.1707
    SETDIJ:  cpu time    0.0624: real time    0.0626
    TRIAL :  cpu time    0.8619: real time    0.8705
    CORREC:  cpu time    3.4956: real time    3.5232
    CHARGE:  cpu time    0.1172: real time    0.1184
    --------------------------------------------
      LOOP:  cpu time    7.6975: real time    7.7896

 eigenvalue-minimisations  :     0
 total energy-change (2. order) :-0.3273206E-05  (-0.1512016E-05)
 number of electron     216.0000000 magnetization 
 augmentation part       -0.3563430 magnetization 

 Free energy of the ion-electron system (eV)
  ---------------------------------------------------
  alpha Z        PSCENC =        59.93625244
  Ewald energy   TEWEN  =     31337.23411091
  -Hartree energ DENC   =    -38428.49635232
  -exchange      EXHF   =         0.00000000
  -V(xc)+E(xc)   XCENC  =       385.29608383
  PAW double counting   =     78951.49958622   -78664.81210261
  entropy T*S    EENTRO =        -0.00000000
  eigenvalues    EBANDS =     -2591.69852309
  atomic energy  EATOM  =      8557.41276814
  ---------------------------------------------------
  free energy    TOTEN  =      -393.62817647 eV

  energy without entropy =     -393.62817647  energy(sigma->0) =     -393.62817647


--------------------------------------------------------------------------------------------------------




--------------------------------------- Iteration      1(  23)  ---------------------------------------


    POTLOK:  cpu time    3.1442: real time    3.1707
    SETDIJ:  cpu time    0.0619: real time    0.0621
    TRIAL :  cpu time    0.8644: real time    0.8728
    CORREC:  cpu time    3.4907: real time    3.5195
    CHARGE:  cpu time    0.1185: real time    0.1197
    --------------------------------------------
      LOOP:  cpu time    7.7414: real time    7.8102

 eigenvalue-minimisations  :     0
 total energy-change (2. order) :-0.1507564E-05  (-0.6708505E-06)
 number of electron     216.0000000 magnetization 
 augmentation part       -0.3563446 magnetization 

 Free energy of the ion-electron system (eV)
  ---------------------------------------------------
  alpha Z        PSCENC =        59.93625244
  Ewald energy   TEWEN  =     31337.23411091
  -Hartree energ DENC   =    -38428.48817474
  -exchange      EXHF   =         0.00000000
  -V(xc)+E(xc)   XCENC  =       385.29589152
  PAW double counting   =     78951.37541955   -78664.68803430
  entropy T*S    EENTRO =        -0.00000000
  eigenvalues    EBANDS =     -2591.70641151
  atomic energy  EATOM  =      8557.41276814
  ---------------------------------------------------
  free energy    TOTEN  =      -393.62817798 eV

  energy without entropy =     -393.62817798  energy(sigma->0) =     -393.62817798


--------------------------------------------------------------------------------------------------------




--------------------------------------- Iteration      1(  24)  ---------------------------------------


    POTLOK:  cpu time    3.1322: real time    3.1594
    SETDIJ:  cpu time    0.0647: real time    0.0649
    TRIAL :  cpu time    0.8625: real time    0.8711
    CORREC:  cpu time    3.5150: real time    3.5470
    CHARGE:  cpu time    0.1183: real time    0.1195
    --------------------------------------------
      LOOP:  cpu time    7.7574: real time    7.8561

 eigenvalue-minimisations  :     0
 total energy-change (2. order) :-0.6778282E-06  (-0.3158484E-06)
 number of electron     216.0000000 magnetization 
 augmentation part       -0.3563517 magnetization 

 Free energy of the ion-electron system (eV)
  ---------------------------------------------------
  alpha Z        PSCENC =        59.93625244
  Ewald energy   TEWEN  =     31337.23411091
  -Hartree energ DENC   =    -38428.48240281
  -exchange      EXHF   =         0.00000000
  -V(xc)+E(xc)   XCENC  =       385.29576549
  PAW double counting   =     78950.04383625   -78663.35642063
  entropy T*S    EENTRO =        -0.00000000
  eigenvalues    EBANDS =     -2591.71208846
  atomic energy  EATOM  =      8557.41276814
  ---------------------------------------------------
  free energy    TOTEN  =      -393.62817866 eV

  energy without entropy =     -393.62817866  energy(sigma->0) =     -393.62817866


--------------------------------------------------------------------------------------------------------




--------------------------------------- Iteration      1(  25)  ---------------------------------------


    POTLOK:  cpu time    3.1381: real time    3.1617
    SETDIJ:  cpu time    0.0640: real time    0.0642
    TRIAL :  cpu time    0.8812: real time    0.8898
    CORREC:  cpu time    3.5025: real time    3.5347
    CHARGE:  cpu time    0.1155: real time    0.1168
    --------------------------------------------
      LOOP:  cpu time    7.8021: real time    7.8793

 eigenvalue-minimisations  :     0
 total energy-change (2. order) :-0.3074092E-06  (-0.1541301E-06)
 number of electron     216.0000000 magnetization 
 augmentation part       -0.3563568 magnetization 

 Free energy of the ion-electron system (eV)
  ---------------------------------------------------
  alpha Z        PSCENC =        59.93625244
  Ewald energy   TEWEN  =     31337.23411091
  -Hartree energ DENC   =    -38428.48314240
  -exchange      EXHF   =         0.00000000
  -V(xc)+E(xc)   XCENC  =       385.29576526
  PAW double counting   =     78948.63955067   -78661.95210508
  entropy T*S    EENTRO =        -0.00000000
  eigenvalues    EBANDS =     -2591.71137891
  atomic energy  EATOM  =      8557.41276814
  ---------------------------------------------------
  free energy    TOTEN  =      -393.62817897 eV

  energy without entropy =     -393.62817897  energy(sigma->0) =     -393.62817897


--------------------------------------------------------------------------------------------------------




--------------------------------------- Iteration      1(  26)  ---------------------------------------


    POTLOK:  cpu time    3.1345: real time    3.1587
    SETDIJ:  cpu time    0.0629: real time    0.0631
    TRIAL :  cpu time    0.8622: real time    0.8706
    CORREC:  cpu time    3.5119: real time    3.5432
    CHARGE:  cpu time    0.1174: real time    0.1187
    --------------------------------------------
      LOOP:  cpu time    7.7555: real time    7.8261

 eigenvalue-minimisations  :     0
 total energy-change (2. order) :-0.1301960E-06  (-0.7155927E-07)
 number of electron     216.0000000 magnetization 
 augmentation part       -0.3563604 magnetization 

 Free energy of the ion-electron system (eV)
  ---------------------------------------------------
  alpha Z        PSCENC =        59.93625244
  Ewald energy   TEWEN  =     31337.23411091
  -Hartree energ DENC   =    -38428.48552084
  -exchange      EXHF   =         0.00000000
  -V(xc)+E(xc)   XCENC  =       385.29586000
  PAW double counting   =     78947.65067323   -78660.96325434
  entropy T*S    EENTRO =        -0.00000000
  eigenvalues    EBANDS =     -2591.70906865
  atomic energy  EATOM  =      8557.41276814
  ---------------------------------------------------
  free energy    TOTEN  =      -393.62817910 eV

  energy without entropy =     -393.62817910  energy(sigma->0) =     -393.62817910


--------------------------------------------------------------------------------------------------------




--------------------------------------- Iteration      1(  27)  ---------------------------------------


    POTLOK:  cpu time    3.1665: real time    3.1933
    SETDIJ:  cpu time    0.0618: real time    0.0620
    TRIAL :  cpu time    0.8631: real time    0.8715
    CORREC:  cpu time    3.5140: real time    3.5425
    EDDIAG:  cpu time    0.3276: real time    0.3317
    CHARGE:  cpu time    0.1175: real time    0.1188
    --------------------------------------------
      LOOP:  cpu time    8.0751: real time    8.1814

 eigenvalue-minimisations  :     0
 total energy-change (2. order) :-0.6117625E-07  (-0.4302215E-07)
 number of electron     216.0000000 magnetization 
 augmentation part       -0.3563612 magnetization 

 Free energy of the ion-electron system (eV)
  ---------------------------------------------------
  alpha Z        PSCENC =        59.93625244
  Ewald energy   TEWEN  =     31337.23411091
  -Hartree energ DENC   =    -38428.48563328
  -exchange      EXHF   =         0.00000000
  -V(xc)+E(xc)   XCENC  =       385.29582572
  PAW double counting   =     78947.20164456   -78660.51423809
  entropy T*S    EENTRO =        -0.00000000
  eigenvalues    EBANDS =     -2591.70890957
  atomic energy  EATOM  =      8557.41276814
  ---------------------------------------------------
  free energy    TOTEN  =      -393.62817916 eV

  energy without entropy =     -393.62817916  energy(sigma->0) =     -393.62817916


--------------------------------------------------------------------------------------------------------


  average scaling for gradient   0.8359


 average (electrostatic) potential at core
  the test charge radii are     0.5770  0.5955
  (the norm of the test charge is              1.0000)
       1 -86.4366       2 -86.4355       3 -86.4377       4 -86.4395       5 -86.4340
       6 -86.4334       7 -86.4374       8 -86.4350       9 -86.4351      10 -86.4370
[...]
      16 -86.4339      17 -86.4347      18 -86.4356      19 -86.4364      20 -86.4348
      21 -86.4333      22 -86.4329      23 -86.4405      24 -86.4403      25 -86.4330
      26 -86.4337      27 -86.4355      28 -86.4374      29 -86.4333      30 -86.4332
      31 -86.4385      32 -86.4370      33 -86.4343      34 -86.4336      35 -86.4337
      36 -86.4342      37 -86.4354      38 -86.4361      39 -86.4361      40 -86.4359
      41 -86.4359      42 -86.4365      43 -86.4348      44 -86.4366      45 -86.4332
      46 -86.4336      47 -86.4339      48 -86.4334      49 -86.4358      50 -86.4350
      51 -90.7286      52-120.4941      53-120.4936
 
 
 
 E-fermi :  -4.0275     XC(G=0):  -2.7996     alpha+bet : -2.1113

 Fermi energy:        -4.0275448261

 k-point     1 :       0.0000    0.0000    0.0000
  band No.  band energies     occupation 
      1     -27.5630      2.00000
      2     -26.6134      2.00000
      3     -22.0456      2.00000
      4     -21.1190      2.00000
      5     -21.1188      2.00000
      6     -21.1186      2.00000
      7     -21.1173      2.00000
      8     -21.1167      2.00000
      9     -21.1166      2.00000
     10     -19.3030      2.00000
     11     -19.3029      2.00000
     12     -19.3026      2.00000
     13     -19.3021      2.00000
     14     -19.3020      2.00000
     15     -19.3019      2.00000
     16     -18.4227      2.00000
     17     -18.4226      2.00000
     18     -18.4223      2.00000
     19     -18.4217      2.00000
     20     -18.4215      2.00000
     21     -18.4212      2.00000
     22     -16.3272      2.00000
     23     -16.3269      2.00000
     24     -16.3261      2.00000
     25     -16.3259      2.00000
     26     -16.3252      2.00000
     27     -16.3251      2.00000
     28     -15.2822      2.00000
     29     -15.2822      2.00000
     30     -15.2816      2.00000
     31     -15.2815      2.00000
     32     -15.2809      2.00000
     33     -15.2808      2.00000
     34     -13.9699      2.00000
     35     -13.9698      2.00000
     36     -13.9692      2.00000
     37     -13.9690      2.00000
     38     -13.9689      2.00000
     39     -13.9687      2.00000
     40     -12.4440      2.00000
     41     -11.6733      2.00000
     42     -11.6731      2.00000
     43     -11.6727      2.00000
     44     -11.6726      2.00000
     45     -11.6716      2.00000
     46     -11.6714      2.00000
     47     -11.5051      2.00000
     48     -11.5051      2.00000
     49     -11.5044      2.00000
     50     -11.5044      2.00000
     51     -11.5037      2.00000
     52     -11.5035      2.00000
     53     -11.3319      2.00000
     54     -11.1642      2.00000
     55     -11.1637      2.00000
     56     -10.2245      2.00000
     57     -10.1541      2.00000
     58     -10.1539      2.00000
     59     -10.1524      2.00000
     60     -10.1521      2.00000
     61     -10.1519      2.00000
     62     -10.1519      2.00000
     63      -9.1151      2.00000
     64      -9.1142      2.00000
     65      -9.1131      2.00000
     66      -9.1120      2.00000
     67      -9.1107      2.00000
     68      -9.1106      2.00000
     69      -8.9715      2.00000
     70      -8.9711      2.00000
     71      -8.9707      2.00000
     72      -8.9704      2.00000
     73      -8.9699      2.00000
     74      -8.9698      2.00000
     75      -8.9155      2.00000
     76      -8.9154      2.00000
     77      -8.9151      2.00000
     78      -8.9150      2.00000
     79      -8.9145      2.00000
     80      -8.9137      2.00000
     81      -7.6713      2.00000
     82      -7.6708      2.00000
     83      -7.3623      2.00000
     84      -7.3610      2.00000
     85      -7.3607      2.00000
     86      -7.3602      2.00000
     87      -7.3589      2.00000
     88      -7.3588      2.00000
     89      -6.9959      2.00000
     90      -6.9955      2.00000
     91      -6.9954      2.00000
     92      -6.9952      2.00000
     93      -6.9952      2.00000
     94      -6.9949      2.00000
     95      -6.1072      2.00000
     96      -6.1063      2.00000
     97      -6.1059      2.00000
     98      -6.1057      2.00000
     99      -6.1054      2.00000
    100      -6.1051      2.00000
    101      -5.9380      2.00000
    102      -5.9358      2.00000
    103      -4.1407      2.00000
    104      -4.1406      2.00000
    105      -4.1403      2.00000
    106      -4.1400      2.00000
    107      -4.1383      2.00000
    108      -4.1381      2.00000
    109      -1.3550      0.00000
    110      -1.3547      0.00000
    111      -1.3535      0.00000
    112      -1.3532      0.00000
    113      -1.3530      0.00000
    114      -1.3528      0.00000
    115      -0.2176      0.00000
    116       0.2874      0.00000
    117       0.4914      0.00000
    118       0.4921      0.00000
    119       0.4926      0.00000
    120       0.4933      0.00000
    121       0.4934      0.00000
    122       0.4956      0.00000
    123       0.7227      0.00000
    124       0.7851      0.00000
    125       1.0645      0.00000
    126       1.1818      0.00000
    127       1.1953      0.00000
    128       1.2254      0.00000
    129       1.2562      0.00000
    130       1.2613      0.00000
    131       1.2710      0.00000
    132       1.7202      0.00000
    133       2.0246      0.00000
    134       2.0689      0.00000
    135       2.1991      0.00000
    136       2.2060      0.00000


--------------------------------------------------------------------------------------------------------


 soft charge-density along one line, spin component           1
         0         1         2         3         4         5         6         7         8         9
 total charge-density along one line
 
 pseudopotential strength for first ion, spin component:           1
 12.606  21.216   0.000   0.000  -0.000   0.000   0.000  -0.000
 21.216  35.704   0.000   0.000  -0.000   0.000   0.000  -0.000
  0.000   0.000  -3.322  -0.000   0.000  -5.952  -0.000   0.000
  0.000   0.000  -0.000  -3.357  -0.000  -0.000  -6.014  -0.000
 -0.000  -0.000   0.000  -0.000  -3.322   0.000  -0.000  -5.952
  0.000   0.000  -5.952  -0.000   0.000 -10.645  -0.000   0.000
  0.000   0.000  -0.000  -6.014  -0.000  -0.000 -10.755  -0.000
 -0.000  -0.000   0.000  -0.000  -5.952   0.000  -0.000 -10.645
 total augmentation occupancy for first ion, spin component:           1
  6.242  -2.004  -0.000  -0.002  -0.000   0.000   0.001   0.000
 -2.004   0.691   0.000   0.001   0.000  -0.000  -0.000  -0.000
 -0.000   0.000   5.992  -0.007   0.000  -1.878   0.003  -0.000
 -0.002   0.001  -0.007   2.311  -0.000   0.003  -0.483   0.000
 -0.000   0.000   0.000  -0.000   5.992  -0.000   0.000  -1.878
  0.000  -0.000  -1.878   0.003  -0.000   0.606  -0.001   0.000
  0.001  -0.000   0.003  -0.483   0.000  -0.001   0.111  -0.000
  0.000  -0.000  -0.000   0.000  -1.878   0.000  -0.000   0.606


------------------------ aborting loop because EDIFF is reached ----------------------------------------


    FORLOC:  cpu time    0.0515: real time    0.0520
    FORNL :  cpu time    0.6761: real time    0.6798
    FORCOR:  cpu time    3.2264: real time    3.2537
    OFIELD:  cpu time    0.0014: real time    0.0015

 VOLUME and BASIS-vectors are now :
 -----------------------------------------------------------------------------
  energy-cutoff  :     1000.00
  volume of cell :     2631.08
      direct lattice vectors                 reciprocal lattice vectors
    12.325000000  0.000000000  0.000000000     0.081135903  0.046843835  0.000000000
    -6.162500000 10.673763102  0.000000000     0.000000000  0.093687670  0.000000000
     0.000000000  0.000000000 20.000000000     0.000000000  0.000000000  0.050000000

  length of vectors
    12.325000000 12.325000000 20.000000000     0.093687670  0.093687670  0.050000000


 FORCES acting on ions:
    Electron-Ion                     Ewald-Force                    Non-Local-Force
 -----------------------------------------------------------------------------------------------
   0.319E+01 0.276E+01 0.175E+02   -.319E+01 -.277E+01 -.176E+02   0.736E-02 -.101E-02 0.752E-02
   0.458E+01 0.224E+01 0.202E+02   -.459E+01 -.224E+01 -.202E+02   0.779E-02 -.406E-02 -.570E-02
   0.194E+01 0.522E+01 0.219E+02   -.194E+01 -.523E+01 -.220E+02   -.786E-03 0.163E-01 0.406E-02
   0.254E+01 0.367E+01 0.276E+02   -.254E+01 -.367E+01 -.276E+02   0.157E-01 0.262E-02 -.539E-02
   0.340E+01 0.810E+00 0.178E+02   -.340E+01 -.808E+00 -.178E+02   0.212E-02 -.741E-02 0.147E-02
   0.348E+01 -.699E+00 0.181E+02   -.348E+01 0.702E+00 -.181E+02   -.615E-02 0.203E-02 -.629E-02
   0.483E+01 0.177E+01 0.261E+02   -.484E+01 -.176E+01 -.261E+02   0.180E-01 -.218E-01 -.245E-02
   0.469E+01 -.168E+01 0.273E+02   -.471E+01 0.168E+01 -.273E+02   -.537E-03 -.920E-02 -.603E-02
   -.233E+01 0.472E+01 0.222E+02   0.234E+01 -.473E+01 -.222E+02   -.447E-02 -.815E-02 -.616E-02
   -.346E+01 0.291E+01 0.271E+02   0.347E+01 -.291E+01 -.271E+02   -.319E-01 0.192E-01 0.644E-02
   0.888E+00 -.890E+00 0.158E+02   -.883E+00 0.889E+00 -.158E+02   0.224E-02 -.228E-02 -.231E-02
   0.777E+00 -.653E+00 0.152E+02   -.774E+00 0.652E+00 -.152E+02   -.886E-02 0.406E-02 0.440E-02
   0.184E+01 -.396E+01 0.293E+02   -.185E+01 0.397E+01 -.292E+02   0.326E-01 -.124E-01 0.170E-02
   0.106E+01 -.525E+01 0.231E+02   -.107E+01 0.526E+01 -.231E+02   0.786E-02 0.240E-02 -.177E-01
   -.308E+01 0.189E+01 0.173E+02   0.308E+01 -.189E+01 -.173E+02   0.689E-02 -.327E-02 0.421E-02
   -.416E+01 0.124E+01 0.185E+02   0.417E+01 -.124E+01 -.185E+02   -.437E-02 0.721E-02 -.855E-02
   -.555E+00 -.218E+00 0.147E+02   0.561E+00 0.215E+00 -.147E+02   -.282E-02 0.125E-02 0.136E-02
   0.252E+00 0.192E+01 0.152E+02   -.250E+00 -.192E+01 -.152E+02   -.464E-02 0.282E-02 0.948E-02
   -.805E+00 -.497E+01 0.200E+02   0.801E+00 0.498E+01 -.200E+02   0.890E-02 -.431E-02 0.141E-02
   -.436E+00 -.286E+01 0.163E+02   0.430E+00 0.286E+01 -.163E+02   0.228E-02 -.298E-02 -.129E-02
   0.458E+01 -.202E+01 0.213E+02   -.458E+01 0.203E+01 -.213E+02   0.133E-02 -.459E-02 -.218E-01
   0.309E+01 -.256E+01 0.188E+02   -.310E+01 0.256E+01 -.188E+02   -.610E-02 0.501E-02 -.628E-02
   -.887E+00 0.167E+01 0.311E+02   0.887E+00 -.167E+01 -.311E+02   -.129E-01 0.128E-01 0.142E-01
   -.120E+01 -.262E+01 0.307E+02   0.119E+01 0.263E+01 -.307E+02   0.138E-01 -.185E-01 0.108E-02
   0.165E+01 -.644E+00 0.159E+02   -.164E+01 0.642E+00 -.159E+02   0.193E-02 -.191E-02 -.612E-02
   0.384E+00 0.144E+01 0.159E+02   -.382E+00 -.144E+01 -.159E+02   -.716E-02 0.466E-02 0.363E-02
   -.526E+01 0.724E+00 0.233E+02   0.527E+01 -.729E+00 -.233E+02   0.575E-02 0.104E-01 -.255E-02
   -.505E+01 -.200E+01 0.222E+02   0.506E+01 0.200E+01 -.222E+02   -.138E-01 0.108E-01 0.363E-02
   0.182E+01 -.365E+01 0.193E+02   -.182E+01 0.365E+01 -.193E+02   0.734E-02 0.104E-02 -.104E-01
   0.157E+00 -.156E+01 0.166E+02   -.160E+00 0.156E+01 -.166E+02   -.344E-02 0.245E-02 -.502E-02
   -.369E+01 -.384E+01 0.249E+02   0.370E+01 0.385E+01 -.249E+02   -.157E-01 -.995E-02 -.596E-02
   -.255E+01 -.473E+01 0.204E+02   0.255E+01 0.473E+01 -.205E+02   0.815E-03 -.535E-02 0.565E-02
   0.216E+00 0.868E+00 0.151E+02   -.219E+00 -.867E+00 -.151E+02   0.694E-02 -.536E-02 0.598E-02
   0.558E+00 0.845E+00 0.158E+02   -.562E+00 -.843E+00 -.158E+02   -.142E-02 0.373E-02 -.321E-02
   -.215E+01 0.350E+00 0.165E+02   0.215E+01 -.352E+00 -.165E+02   0.357E-02 -.169E-02 0.374E-02
   -.190E+01 -.815E+00 0.163E+02   0.191E+01 0.813E+00 -.163E+02   -.643E-02 0.347E-02 0.217E-02
   -.368E+01 -.192E+01 0.176E+02   0.369E+01 0.192E+01 -.176E+02   -.502E-02 0.143E-02 0.339E-02
   -.236E+01 -.188E+01 0.160E+02   0.236E+01 0.188E+01 -.160E+02   -.626E-02 0.146E-02 0.975E-02
   -.215E+01 -.276E+01 0.167E+02   0.215E+01 0.276E+01 -.167E+02   -.491E-02 -.906E-03 0.625E-02
   -.326E+00 -.718E+00 0.153E+02   0.327E+00 0.718E+00 -.153E+02   0.242E-02 -.280E-03 0.820E-02
   0.807E+00 0.201E+01 0.156E+02   -.807E+00 -.202E+01 -.156E+02   -.445E-02 0.340E-02 0.784E-02
   0.248E+01 0.387E+01 0.180E+02   -.248E+01 -.387E+01 -.180E+02   0.178E-02 0.105E-02 0.102E-01
   0.229E+00 0.339E+01 0.164E+02   -.223E+00 -.339E+01 -.164E+02   -.267E-02 0.337E-02 0.145E-02
   -.637E-01 0.524E+01 0.203E+02   0.688E-01 -.525E+01 -.203E+02   -.115E-01 0.521E-02 0.652E-02
   -.639E+00 0.122E+01 0.164E+02   0.642E+00 -.123E+01 -.164E+02   0.314E-02 -.255E-02 -.135E-02
   -.247E+01 0.304E+01 0.182E+02   0.247E+01 -.304E+01 -.182E+02   -.854E-02 0.186E-02 -.494E-02
   -.564E+00 -.143E+01 0.158E+02   0.561E+00 0.144E+01 -.158E+02   0.823E-02 -.207E-02 0.440E-02
   -.130E+01 0.486E+00 0.152E+02   0.129E+01 -.485E+00 -.152E+02   -.208E-02 0.281E-02 -.545E-02
   0.137E+00 -.896E+00 0.152E+02   -.139E+00 0.897E+00 -.152E+02   0.564E-02 -.374E-02 0.602E-02
   0.142E+01 0.101E+01 0.152E+02   -.142E+01 -.101E+01 -.152E+02   0.239E-02 0.108E-02 0.311E-02
   0.169E-01 0.563E-02 -.241E+03   -.194E-01 -.322E-02 0.241E+03   -.286E-02 0.210E-02 -.169E-02
   -.229E+03 0.156E+03 -.373E+03   0.279E+03 -.190E+03 0.376E+03   -.513E+02 0.349E+02 -.345E+01
   0.229E+03 -.156E+03 -.353E+03   -.279E+03 0.190E+03 0.350E+03   0.513E+02 -.349E+02 0.309E+01
 -----------------------------------------------------------------------------------------------
   -.571E-02 0.125E-01 0.348E+00   0.568E-13 0.284E-13 -.568E-13   0.577E-02 -.125E-01 -.350E+00
 
 
 POSITION                                       TOTAL-FORCE (eV/Angst)
 -----------------------------------------------------------------------------------
     11.98348      0.00342      0.01417         0.002879     -0.001524     -0.000762
     -0.34154      1.42665      0.01100        -0.001800      0.000176     -0.003259
      2.12355      0.00315      0.01249        -0.001847      0.009395     -0.005752
      2.12326      1.42653      0.00641         0.012361      0.000614     -0.007057
     10.75099      2.13819      0.01213         0.000379     -0.005208      0.000169
     -1.57382      3.56123      0.01110        -0.008436      0.004749     -0.001454
      0.89078      2.13854      0.00548         0.008320     -0.018169      0.002673
      0.89099      3.56147      0.00181        -0.012815     -0.001753      0.011735
      4.58864      0.00346      0.01135         0.004263     -0.016309     -0.003296
      4.58894      1.42623      0.00646        -0.021325      0.011933      0.014177
      9.51854      4.27281      0.01369         0.006700     -0.003108      0.000287
     -2.80632      5.69591      0.01434        -0.006242      0.003235      0.000999
      2.12300      4.27302      0.00000         0.023125     -0.003906      0.020443
      2.12335      5.69594      0.00581        -0.001358      0.009862     -0.002808
      7.05344      0.00333      0.01399         0.008819     -0.005010     -0.000049
      7.05353      1.42635      0.01368        -0.001265      0.004347     -0.003658
      8.28610      6.40752      0.01601         0.003243     -0.001554     -0.000556
     -4.03885      7.83070      0.01636        -0.002029      0.000891      0.000215
      3.35586      6.40753      0.01007         0.004924      0.000751     -0.001219
      3.35599      7.83072      0.01320        -0.003471      0.000418     -0.000531
     -0.34146      4.27290      0.00723        -0.002299     -0.000891     -0.004723
     -0.34138      5.69591      0.00946        -0.008737      0.006110     -0.001073
      3.35624      2.13791      0.00222        -0.013113      0.011105      0.017507
      3.35573      3.56155      0.00139         0.013337     -0.014781      0.009691
     -1.57395      6.40758      0.01311         0.005642     -0.004034     -0.000588
     -1.57385      7.83068      0.01438        -0.004533      0.003691      0.000328
      5.82093      2.13784      0.01033         0.016738      0.004629     -0.002573
      5.82114      3.56097      0.01156        -0.005413      0.008029     -0.003315
      0.89092      6.40755      0.00907         0.004068      0.002145     -0.002283
      0.89106      7.83068      0.01235        -0.006821      0.003641      0.000361
      4.58871      4.27293      0.00850        -0.011736     -0.005438     -0.009978
      4.58852      5.69606      0.01149         0.002022     -0.000521     -0.003539
      9.51845      0.00337      0.01490         0.004480     -0.004467      0.000448
      9.51855      1.42644      0.01438        -0.005168      0.005458     -0.000230
      8.28593      2.13803      0.01453         0.006382     -0.003449      0.000800
      8.28613      3.56115      0.01464        -0.004159      0.001948      0.000207
      7.05356      4.27269      0.01457         0.003392     -0.001128     -0.000363
      7.05362      5.69588      0.01553        -0.002297      0.001461      0.000205
      5.82112      6.40755      0.01489        -0.002657      0.001862      0.000152
      5.82102      7.83073      0.01579         0.002715      0.000310      0.000017
      7.05363      8.54227      0.01631        -0.004593      0.000977      0.001331
     -5.27149      9.96549      0.01495        -0.000067     -0.002325     -0.001687
     -2.80638      8.54234      0.01558         0.003454     -0.001861     -0.000935
     -2.80627      9.96553      0.01362        -0.006086     -0.000423     -0.003375
     -0.34149      8.54239      0.01378         0.005710     -0.004657      0.000361
     -0.34138      9.96550      0.01354        -0.005248     -0.000107     -0.001110
      2.12343      8.54232      0.01336         0.005550     -0.001503      0.000998
      2.12354      9.96544      0.01469        -0.005405      0.003881     -0.001783
      4.58846      8.54235      0.01505         0.003503     -0.002746      0.001155
      4.58853      9.96550      0.01517        -0.003156      0.003312      0.000390
      3.04930      2.68154      5.61231        -0.005282      0.004430      0.024400
      4.02070      2.02068      5.67673        -0.484095      0.328987     -0.051012
      2.07767      3.34267      5.55286         0.489446     -0.333475      0.009921
 -----------------------------------------------------------------------------------
    total drift:                                0.000057      0.000022     -0.001700


--------------------------------------------------------------------------------------------------------



  FREE ENERGIE OF THE ION-ELECTRON SYSTEM (eV)
  ---------------------------------------------------
  free  energy   TOTEN  =      -393.62817916 eV

  energy  without entropy=     -393.62817916  energy(sigma->0) =     -393.62817916
 


--------------------------------------------------------------------------------------------------------


    POTLOK:  cpu time    3.3399: real time    3.3649


--------------------------------------------------------------------------------------------------------


     LOOP+:  cpu time  213.2604: real time  215.7597
    4ORBIT:  cpu time    0.0000: real time    0.0000

 total amount of memory used by VASP MPI-rank0    85439. kBytes
=======================================================================

   base      :      30000. kBytes
   nonl-proj :       6586. kBytes
   fftplans  :      14299. kBytes
   grid      :      23511. kBytes
   one-center:          6. kBytes
   wavefun   :      11037. kBytes
 
  
  
 General timing and accounting informations for this job:
 ========================================================
  
                  Total CPU time used (sec):      246.655
                            User time (sec):      228.069
                          System time (sec):       18.586
                         Elapsed time (sec):      250.811
  
                   Maximum memory used (kb):      678180.
                   Average memory used (kb):          N/A
  
                          Minor page faults:       405712
                          Major page faults:           81
                 Voluntary context switches:         3922
