 vasp.6.2.1 16May21 (build Nov 06 2021 14:46:37) complex                        
  
 executed on             LinuxIFC date 2025.04.16  18:46:00
 running on  112 total cores
 distrk:  each k-point on  112 cores,    1 groups
 distr:  one band on NCORE=  28 cores,    4 groups


--------------------------------------------------------------------------------------------------------


 INCAR:
   NPAR = 4
   ALGO = Conjugate
   ISMEAR = 0
   SIGMA = 0.01
   PREC = Accurate
   EDIFF = 1E-7
   ENCUT = 1000
   ISIF = 0
   GGA = ML
   LUSE_VDW = .TRUE.
   ZAB_VDW = -1.8867
   AGGAC = 0.0000
   LASPH = .TRUE.
   SYMPREC = 1E-7
   LWAVE = .FALSE.
   LCHARGE = .FALSE.

 POTCAR:    PAW_PBE C_h 06Feb2004                 
 POTCAR:    PAW_PBE O_h 06Feb2004                 
 -----------------------------------------------------------------------------
|                                                                             |
|           W    W    AA    RRRRR   N    N  II  N    N   GGGG   !!!           |
|           W    W   A  A   R    R  NN   N  II  NN   N  G    G  !!!           |
|           W    W  A    A  R    R  N N  N  II  N N  N  G       !!!           |
|           W WW W  AAAAAA  RRRRR   N  N N  II  N  N N  G  GGG   !            |
|           WW  WW  A    A  R   R   N   NN  II  N   NN  G    G                |
|           W    W  A    A  R    R  N    N  II  N    N   GGGG   !!!           |
|                                                                             |
|     For optimal performance we recommend to set                             |
|       NCORE = 2 up to number-of-cores-per-socket                            |
|     NCORE specifies how many cores store one orbital (NPAR=cpu/NCORE).      |
|     This setting can greatly improve the performance of VASP for DFT.       |
|     The default, NCORE=1 might be grossly inefficient on modern             |
|     multi-core architectures or massively parallel machines. Do your        |
|     own testing! More info at https://www.vasp.at/wiki/index.php/NCORE      |
|     Unfortunately you need to use the default for GW and RPA                |
|     calculations (for HF NCORE is supported but not extensively tested      |
|     yet).                                                                   |
|                                                                             |
 -----------------------------------------------------------------------------

 -----------------------------------------------------------------------------
|                                                                             |
|               ----> ADVICE to this user running VASP <----                  |
|                                                                             |
|     You have switched on vdW-DFT.                                           |
|     This routine was written and supplied by Jiri Klimes. We recommend      |
|     that you carefully read and cite the following publications:            |
|       J. Klimes, D.R. Bowler, A. Michelides                                 |
|          J. Phys.: Cond Matt. 22 022201 (2010)                              |
|       J. Klimes, D.R. Bowler, A. Michelides                                 |
|          Phys. Rev. B. 83, 195131 (2011)                                    |
|     and references therein.                                                 |
|                                                                             |
 -----------------------------------------------------------------------------

 POTCAR:    PAW_PBE C_h 06Feb2004                 
   VRHFIN =C: s2p2                                                                                  
   LEXCH  = PE                                                                                      
   EATOM  =   147.1560 eV,   10.8157 Ry                                                             
                                                                                                    
   TITEL  = PAW_PBE C_h 06Feb2004                                                                   
   LULTRA =        F    use ultrasoft PP ?                                                          
   IUNSCR =        1    unscreen: 0-lin 1-nonlin 2-no                                               
   RPACOR =    0.800    partial core radius                                                         
   POMASS =   12.011; ZVAL   =    4.000    mass and valenz                                          
   RCORE  =    1.100    outmost cutoff radius                                                       
   RWIGS  =    1.630; RWIGS  =    0.863    wigner-seitz radius (au A)                               
   ENMAX  =  700.000; ENMIN  =  500.000 eV                                                          
   ICORE  =        2    local potential                                                             
   LCOR   =        T    correct aug charges                                                         
   LPAW   =        T    paw PP                                                                      
   EAUG   =  946.768                                                                                
   DEXC   =    0.000                                                                                
   RMAX   =    1.128    core radius for proj-oper                                                   
   RAUG   =    1.300    factor for augmentation sphere                                              
   RDEP   =    1.162    radius for radial grids                                                     
   RDEPT  =    1.088    core radius for aug-charge                                                  
                                                                                                    
   Atomic configuration                                                                             
    4 entries                                                                                       
     n  l   j            E        occ.                                                              
     1  0  0.50      -273.3789   2.0000                                                             
     2  0  0.50       -13.7508   2.0000                                                             
     2  1  0.50        -5.2854   2.0000                                                             
     3  2  1.50        -5.4423   0.0000                                                             
   Description                                                                                      
     l       E           TYP  RCUT    TYP  RCUT                                                     
     0    -13.7508458     23  1.100                                                                 
     0     -8.2022199     23  1.100                                                                 
     1     -5.2854383     23  1.100                                                                 
     1      1.1560700     23  1.100                                                                 
     2     -5.4423304      7  1.100                                                                 
  local pseudopotential read in
  partial core-charges read in
  partial kinetic energy density read in
  atomic valenz-charges read in
  non local Contribution for L=           0  read in
    real space projection operators read in
  non local Contribution for L=           0  read in
    real space projection operators read in
  non local Contribution for L=           1  read in
    real space projection operators read in
  non local Contribution for L=           1  read in
    real space projection operators read in
    PAW grid and wavefunctions read in
 
   number of l-projection  operators is LMAX  =           4
   number of lm-projection operators is LMMAX =           8
 
 POTCAR:    PAW_PBE O_h 06Feb2004                 
   VRHFIN =O: s2p4                                                                                  
   LEXCH  = PE                                                                                      
   EATOM  =   432.3788 eV,   31.7789 Ry                                                             
                                                                                                    
   TITEL  = PAW_PBE O_h 06Feb2004                                                                   
   LULTRA =        F    use ultrasoft PP ?                                                          
   IUNSCR =        1    unscreen: 0-lin 1-nonlin 2-no                                               
   RPACOR =    0.800    partial core radius                                                         
   POMASS =   16.000; ZVAL   =    6.000    mass and valenz                                          
   RCORE  =    1.100    outmost cutoff radius                                                       
   RWIGS  =    1.400; RWIGS  =    0.741    wigner-seitz radius (au A)                               
   ENMAX  =  700.000; ENMIN  =  500.000 eV                                                          
   ICORE  =        2    local potential                                                             
   LCOR   =        T    correct aug charges                                                         
   LPAW   =        T    paw PP                                                                      
   EAUG   =  888.804                                                                                
   DEXC   =    0.000                                                                                
   RMAX   =    1.128    core radius for proj-oper                                                   
   RAUG   =    1.300    factor for augmentation sphere                                              
   RDEP   =    1.125    radius for radial grids                                                     
   RDEPT  =    1.088    core radius for aug-charge                                                  
                                                                                                    
   Atomic configuration                                                                             
    4 entries                                                                                       
     n  l   j            E        occ.                                                              
     1  0  0.50      -514.6923   2.0000                                                             
     2  0  0.50       -23.9615   2.0000                                                             
     2  1  0.50        -9.0305   4.0000                                                             
     3  2  1.50        -9.5241   0.0000                                                             
   Description                                                                                      
     l       E           TYP  RCUT    TYP  RCUT                                                     
     0    -23.9615319     23  1.100                                                                 
     0    -25.3221145     23  1.100                                                                 
     1     -9.0304911     23  1.100                                                                 
     1     -5.4802209     23  1.100                                                                 
     2     -9.5240782      7  1.100                                                                 
  local pseudopotential read in
  partial core-charges read in
  partial kinetic energy density read in
  atomic valenz-charges read in
  non local Contribution for L=           0  read in
    real space projection operators read in
  non local Contribution for L=           0  read in
    real space projection operators read in
  non local Contribution for L=           1  read in
    real space projection operators read in
  non local Contribution for L=           1  read in
    real space projection operators read in
    PAW grid and wavefunctions read in
 
   number of l-projection  operators is LMAX  =           4
   number of lm-projection operators is LMMAX =           8
 
 -----------------------------------------------------------------------------
|                                                                             |
|               ----> ADVICE to this user running VASP <----                  |
|                                                                             |
|     You have a (more or less) 'large supercell' and for larger cells it     |
|     might be more efficient to use real-space projection operators.         |
|     Therefore, try LREAL= Auto in the INCAR file.                           |
|     Mind: For very accurate calculation, you might also keep the            |
|     reciprocal projection scheme (i.e. LREAL=.FALSE.).                      |
|                                                                             |
 -----------------------------------------------------------------------------

 -----------------------------------------------------------------------------
|                                                                             |
|               ----> ADVICE to this user running VASP <----                  |
|                                                                             |
|     You enforced a specific xc type in the INCAR file but a different       |
|     type was found in the POTCAR file.                                      |
|     I HOPE YOU KNOW WHAT YOU ARE DOING!                                     |
|                                                                             |
 -----------------------------------------------------------------------------

  PAW_PBE C_h 06Feb2004                 :
 energy of atom  1       EATOM= -147.1560
 kinetic energy error for atom=    0.0031 (will be added to EATOM!!)
  PAW_PBE O_h 06Feb2004                 :
 energy of atom  2       EATOM= -432.3788
 kinetic energy error for atom=    0.0171 (will be added to EATOM!!)
 
 
 POSCAR:  C  O
  positions in cartesian coordinates
  No initial velocities read in
 exchange correlation table for  LEXCH =       44
   RHO(1)=    0.500       N(1)  =     2000
   RHO(2)=  100.500       N(2)  =     4000
 


--------------------------------------------------------------------------------------------------------


 ion  position               nearest neighbor table
   1  0.972  0.000  0.001-  50 1.42   2 1.42  42 1.42
   2  0.039  0.134  0.000-   5 1.42   7 1.42   1 1.42
   3  0.172  0.000  0.000-  42 1.42  44 1.42   4 1.42
   4  0.239  0.134  0.000-   7 1.42   3 1.42  23 1.42
   5  0.972  0.200  0.000-   6 1.42   2 1.42  34 1.42
   6  0.039  0.334  0.000-   5 1.42  21 1.42  11 1.42
   7  0.172  0.200  0.000-   8 1.42   2 1.42   4 1.42
   8  0.239  0.334  0.000-  13 1.42   7 1.42  21 1.42
   9  0.372  0.000  0.000-  10 1.42  44 1.42  46 1.42
  10  0.439  0.134  0.000-  27 1.42   9 1.42  23 1.42
  11  0.972  0.400  0.001-  12 1.42  36 1.42   6 1.42
  12  0.039  0.534  0.001-  25 1.42  11 1.42  17 1.42
  13  0.372  0.400  0.000-   8 1.42  14 1.42  24 1.42
  14  0.439  0.534  0.000-  13 1.42  29 1.42  19 1.42
  15  0.572  0.000  0.001-  46 1.42  16 1.42  48 1.42
  16  0.639  0.134  0.001-  15 1.42  35 1.42  27 1.42
  17  0.972  0.600  0.001-  38 1.42  18 1.42  12 1.42
  18  0.039  0.734  0.001-  43 1.42  41 1.42  17 1.42
  19  0.572  0.600  0.000-  14 1.42  20 1.42  32 1.42
  20  0.639  0.734  0.001-  49 1.42  19 1.42  47 1.42
  21  0.172  0.400  0.000-  22 1.42   8 1.42   6 1.42
  22  0.239  0.534  0.000-  21 1.42  29 1.42  25 1.42
  23  0.372  0.200  0.000-  10 1.42   4 1.42  24 1.42
  24  0.439  0.334  0.000-  13 1.42  31 1.42  23 1.42
  25  0.172  0.600  0.001-  26 1.42  12 1.42  22 1.42
  26  0.239  0.734  0.001-  25 1.42  45 1.42  43 1.42
  27  0.572  0.200  0.000-  10 1.42  28 1.42  16 1.42
  28  0.639  0.334  0.000-  27 1.42  37 1.42  31 1.42
  29  0.372  0.600  0.000-  22 1.42  14 1.42  30 1.42
  30  0.439  0.734  0.000-  47 1.42  29 1.42  45 1.42
  31  0.572  0.400  0.000-  32 1.42  28 1.42  24 1.42
  32  0.639  0.534  0.000-  31 1.42  39 1.42  19 1.42
  33  0.772  0.000  0.001-  34 1.42  48 1.42  50 1.42
  34  0.839  0.134  0.001-  33 1.42   5 1.42  35 1.42
  35  0.772  0.200  0.001-  36 1.42  16 1.42  34 1.42
  36  0.839  0.334  0.001-  35 1.42  11 1.42  37 1.42
  37  0.772  0.400  0.001-  28 1.42  38 1.42  36 1.42
  38  0.839  0.534  0.001-  17 1.42  37 1.42  39 1.42
  39  0.772  0.600  0.001-  40 1.42  38 1.42  32 1.42
  40  0.839  0.734  0.001-  39 1.42  49 1.42  41 1.42
  41  0.972  0.800  0.001-  18 1.42  42 1.42  40 1.42
  42  0.039  0.934  0.001-   3 1.42  41 1.42   1 1.42
  43  0.172  0.800  0.001-  18 1.42  44 1.42  26 1.42
  44  0.239  0.934  0.001-   9 1.42  43 1.42   3 1.42
  45  0.372  0.800  0.001-  26 1.42  46 1.42  30 1.42
  46  0.439  0.934  0.001-  15 1.42  45 1.42   9 1.42
  47  0.572  0.800  0.001-  30 1.42  48 1.42  20 1.42
  48  0.639  0.934  0.001-  47 1.42  33 1.42  15 1.42
  49  0.772  0.800  0.001-  50 1.42  20 1.42  40 1.42
  50  0.839  0.934  0.001-  49 1.42   1 1.42  33 1.42
  51  0.373  0.251  0.133-  52 1.18  53 1.18
  52  0.421  0.189  0.136-  51 1.18
  53  0.325  0.313  0.131-  51 1.18
 
  LATTYP: Found a hexagonal cell.
 ALAT       =    12.3250000000
 C/A-ratio  =     2.0283975659
  
  Lattice vectors:
  
 A1 = (  12.3250000000,   0.0000000000,   0.0000000000)
 A2 = (  -6.1625000000,  10.6737631016,   0.0000000000)
 A3 = (   0.0000000000,   0.0000000000,  25.0000000000)


Analysis of symmetry for initial positions (statically):
=====================================================================
 Subroutine PRICEL returns:
 Original cell was already a primitive cell.
 

 Routine SETGRP: Setting up the symmetry group for a 
 hexagonal supercell.


 Subroutine GETGRP returns: Found  1 space group operations
 (whereof  1 operations were pure point group operations)
 out of a pool of 24 trial point group operations.


The static configuration has the point symmetry C_1 .


Analysis of symmetry for dynamics (positions and initial velocities):
=====================================================================
 Subroutine PRICEL returns:
 Original cell was already a primitive cell.
 

 Routine SETGRP: Setting up the symmetry group for a 
 hexagonal supercell.


 Subroutine GETGRP returns: Found  1 space group operations
 (whereof  1 operations were pure point group operations)
 out of a pool of 24 trial point group operations.


The dynamic configuration has the point symmetry C_1 .


 Subroutine INISYM returns: Found  1 space group operations
 (whereof  1 operations are pure point group operations),
 and found     1 'primitive' translations


----------------------------------------------------------------------------------------

                                     Primitive cell                                     

  volume of cell :    3288.8533

  direct lattice vectors                    reciprocal lattice vectors
    12.325000000  0.000000000  0.000000000     0.081135903  0.046843835  0.000000000
    -6.162500000 10.673763102  0.000000000     0.000000000  0.093687670  0.000000000
     0.000000000  0.000000000 25.000000000     0.000000000  0.000000000  0.040000000

  length of vectors
    12.325000000 12.325000000 25.000000000     0.093687670  0.093687670  0.040000000

  position of ions in fractional coordinates (direct lattice)
     0.972450841  0.000320818  0.000566711
     0.039118382  0.133659505  0.000440173
     0.172443627  0.000295449  0.000499628
     0.239096278  0.133647917  0.000256468
     0.972452058  0.200322012  0.000485219
     0.039128360  0.333643771  0.000444150
     0.172451764  0.200354552  0.000219167
     0.239124359  0.333665720  0.000072260
     0.372465565  0.000324403  0.000453913
     0.439137473  0.133619939  0.000258338
     0.972449824  0.400309362  0.000547611
     0.039124981  0.533636789  0.000573410
     0.372416176  0.400329481  0.000000000
     0.439099602  0.533638981  0.000232414
     0.572443676  0.000312125  0.000559580
     0.639110207  0.133631751  0.000547275
     0.972452703  0.600305653  0.000640289
     0.039124495  0.733640359  0.000654513
     0.572433471  0.600306242  0.000402895
     0.639111888  0.733641879  0.000527905
     0.172454630  0.400318228  0.000289045
     0.239120185  0.533636548  0.000378509
     0.372459750  0.200295993  0.000088997
     0.439107096  0.333673419  0.000055762
     0.172452155  0.600311506  0.000524340
     0.239123371  0.733638574  0.000575129
     0.572431082  0.200289171  0.000413296
     0.639112773  0.333618630  0.000462376
     0.372439808  0.600308022  0.000362844
     0.439116090  0.733637858  0.000494190
     0.572469358  0.400320504  0.000339918
     0.639119408  0.533650873  0.000459610
     0.772445723  0.000315427  0.000596161
     0.839116277  0.133640203  0.000575306
     0.772440513  0.200307432  0.000581033
     0.839120241  0.333635728  0.000585467
     0.772446320  0.400298367  0.000582978
     0.839118980  0.533633964  0.000621100
     0.772456143  0.600308173  0.000595712
     0.839115033  0.733643180  0.000631512
     0.972455313  0.800305582  0.000652233
     0.039114714  0.933643289  0.000598051
     0.172457971  0.800312211  0.000623372
     0.239134551  0.933647193  0.000544850
     0.372451396  0.800316674  0.000551399
     0.439124489  0.933644769  0.000541430
     0.572441101  0.800310054  0.000534535
     0.639115067  0.933638985  0.000587644
     0.772445098  0.800313187  0.000602062
     0.839116614  0.933644338  0.000606830
     0.373021009  0.251226878  0.133483986
     0.420879805  0.189313152  0.136060860
     0.325156981  0.313167186  0.131105791

  ion indices of the primitive-cell ions
   primitive index   ion index
                 1           1
                 2           2
                 3           3
                 4           4
                 5           5
                 6           6
                 7           7
                 8           8
                 9           9
                10          10
                11          11
                12          12
                13          13
                14          14
                15          15
                16          16
                17          17
                18          18
                19          19
                20          20
                21          21
                22          22
                23          23
                24          24
                25          25
                26          26
                27          27
                28          28
                29          29
                30          30
                31          31
                32          32
                33          33
                34          34
                35          35
                36          36
                37          37
                38          38
                39          39
                40          40
                41          41
                42          42
                43          43
                44          44
                45          45
                46          46
                47          47
                48          48
                49          49
                50          50
                51          51
                52          52
                53          53

----------------------------------------------------------------------------------------

 
 
 KPOINTS: auto                                    

Automatic generation of k-mesh.
 Grid dimensions read from file:
 generate k-points for:    1    1    1

 Generating k-lattice:

  Cartesian coordinates                     Fractional coordinates (reciprocal lattice)
     0.081135903  0.046843835  0.000000000     1.000000000 -0.000000000  0.000000000
     0.000000000  0.093687670  0.000000000     0.000000000  1.000000000  0.000000000
     0.000000000  0.000000000  0.040000000     0.000000000  0.000000000  1.000000000

  Length of vectors
     0.093687670  0.093687670  0.040000000

  Shift w.r.t. Gamma in fractional coordinates (k-lattice)
     0.000000000  0.000000000  0.000000000

 
 Subroutine IBZKPT returns following result:
 ===========================================
 
 Found      1 irreducible k-points:
 
 Following reciprocal coordinates:
            Coordinates               Weight
  0.000000  0.000000  0.000000      1.000000
 
 Following cartesian coordinates:
            Coordinates               Weight
  0.000000  0.000000  0.000000      1.000000
 


--------------------------------------------------------------------------------------------------------




 Dimension of arrays:
   k-points           NKPTS =      1   k-points in BZ     NKDIM =      1   number of bands    NBANDS=    136
   number of dos      NEDOS =    301   number of ions     NIONS =     53
   non local maximal  LDIM  =      4   non local SUM 2l+1 LMDIM =      8
   total plane-waves  NPLWV = ******
   max r-space proj   IRMAX =      1   max aug-charges    IRDMAX=  10008
   dimension x,y,z NGX =   128 NGY =  128 NGZ =  270
   dimension x,y,z NGXF=   256 NGYF=  256 NGZF=  540
   support grid    NGXF=   256 NGYF=  256 NGZF=  540
   ions per type =              51   2
   NGX,Y,Z   is equivalent  to a cutoff of  17.27, 17.27, 17.95 a.u.
   NGXF,Y,Z  is equivalent  to a cutoff of  34.53, 34.53, 35.91 a.u.

 SYSTEM =  unknown system                          
 POSCAR =   C  O                                   

 Startparameter for this run:
   NWRITE =      2    write-flag & timer
   PREC   = accura    normal or accurate (medium, high low for compatibility)
   ISTART =      0    job   : 0-new  1-cont  2-samecut
   ICHARG =      2    charge: 1-file 2-atom 10-const
   ISPIN  =      1    spin polarized calculation?
   LNONCOLLINEAR =      F non collinear calculations
   LSORBIT =      F    spin-orbit coupling
   INIWAV =      1    electr: 0-lowe 1-rand  2-diag
   LASPH  =      T    aspherical Exc in radial PAW
 Electronic Relaxation 1
   ENCUT  = 1000.0 eV  73.50 Ry    8.57 a.u.  31.78 31.78 64.46*2*pi/ulx,y,z
   ENINI  = 1000.0     initial cutoff
   ENAUG  =  946.8 eV  augmentation charge cutoff
   NELM   =     60;   NELMIN=  2; NELMDL= -5     # of ELM steps 
   EDIFF  = 0.1E-06   stopping-criterion for ELM
   LREAL  =      F    real-space projection
   NLSPLINE    = F    spline interpolate recip. space projectors
   LCOMPAT=      F    compatible to vasp.4.4
   GGA_COMPAT  = T    GGA compatible to vasp.4.4-vasp.4.6
   LMAXPAW     = -100 max onsite density
   LMAXMIX     =    2 max onsite mixed and CHGCAR
   VOSKOWN=      0    Vosko Wilk Nusair interpolation
   ROPT   =    0.00000   0.00000
 Ionic relaxation
   EDIFFG = 0.1E-05   stopping-criterion for IOM
   NSW    =      0    number of steps for IOM
   NBLOCK =      1;   KBLOCK =      1    inner block; outer block 
   IBRION =     -1    ionic relax: 0-MD 1-quasi-New 2-CG
   NFREE  =      0    steps in history (QN), initial steepest desc. (CG)
   ISIF   =      0    stress and relaxation
   IWAVPR =     10    prediction:  0-non 1-charg 2-wave 3-comb
   ISYM   =      2    0-nonsym 1-usesym 2-fastsym
   LCORR  =      T    Harris-Foulkes like correction to forces

   POTIM  = 0.5000    time-step for ionic-motion
   TEIN   =    0.0    initial temperature
   TEBEG  =    0.0;   TEEND  =   0.0 temperature during run
   SMASS  =  -3.00    Nose mass-parameter (am)
   estimated Nose-frequenzy (Omega)   =  0.10E-29 period in steps = 0.13E+47 mass=  -0.347E-26a.u.
   SCALEE = 1.0000    scale energy and forces
   NPACO  =    256;   APACO  = 16.0  distance and # of slots for P.C.
   PSTRESS=    0.0 pullay stress

  Mass of Ions in am
   POMASS =  12.01 16.00
  Ionic Valenz
   ZVAL   =   4.00  6.00
  Atomic Wigner-Seitz radii
   RWIGS  =  -1.00 -1.00
  virtual crystal weights 
   VCA    =   1.00  1.00
   NELECT =     216.0000    total number of electrons
   NUPDOWN=      -1.0000    fix difference up-down

 DOS related values:
   EMIN   =  10.00;   EMAX   =-10.00  energy-range for DOS
   EFERMI =   0.00
   ISMEAR =     0;   SIGMA  =   0.01  broadening in eV -4-tet -1-fermi 0-gaus

 Electronic relaxation 2 (details)
   IALGO  =     58    algorithm
   LDIAG  =      T    sub-space diagonalisation (order eigenvalues)
   LSUBROT=      F    optimize rotation matrix (better conditioning)
   TURBO    =      0    0=normal 1=particle mesh
   IRESTART =      0    0=no restart 2=restart with 2 vectors
   NREBOOT  =      0    no. of reboots
   NMIN     =      0    reboot dimension
   EREF     =   0.00    reference energy to select bands
   IMIX   =      4    mixing-type and parameters
     AMIX     =   0.40;   BMIX     =  1.00
     AMIX_MAG =   1.60;   BMIX_MAG =  1.00
     AMIN     =   0.10
     WC   =   100.;   INIMIX=   1;  MIXPRE=   1;  MAXMIX= -45

 Intra band minimization:
   WEIMIN = 0.0000     energy-eigenvalue tresh-hold
   EBREAK =  0.18E-09  absolut break condition
   DEPER  =   0.30     relativ break condition  

   TIME   =   0.40     timestep for ELM

  volume/ion in A,a.u.               =      62.05       418.76
  Fermi-wavevector in a.u.,A,eV,Ry     =   0.660508  1.248179  5.935820  0.436270
  Thomas-Fermi vector in A             =   1.732977
 
 Write flags
   LWAVE        =      F    write WAVECAR
   LDOWNSAMPLE  =      F    k-point downsampling of WAVECAR
   LCHARG       =      T    write CHGCAR
   LVTOT        =      F    write LOCPOT, total local potential
   LVHAR        =      F    write LOCPOT, Hartree potential only
   LELF         =      F    write electronic localiz. function (ELF)
   LORBIT       =      0    0 simple, 1 ext, 2 COOP (PROOUT), +10 PAW based schemes


 Dipole corrections
   LMONO  =      F    monopole corrections only (constant potential shift)
   LDIPOL =      F    correct potential (dipole corrections)
   IDIPOL =      0    1-x, 2-y, 3-z, 4-all directions 
   EPSILON=  1.0000000 bulk dielectric constant

 Exchange correlation treatment:
   GGA     =    ML    GGA type
   LEXCH   =    44    internal setting for exchange type
   VOSKOWN=      0    Vosko Wilk Nusair interpolation
   LHFCALC =     F    Hartree Fock is set to
   LHFONE  =     F    Hartree Fock one center treatment
   AEXX    =    0.0000 exact exchange contribution

 vdW DFT:
   LUSE_VDW   =     T    switch on vdW DFT
   Zab_VDW    =******    correlation parameter
   PARAM1     =0.1234
   PARAM2     =1.0000
   PARAM3     =0.0000
   -- rVV10 --
   BPARAM     = 6.3000
   CPARAM     = 0.0093

 Linear response parameters
   LEPSILON=     F    determine dielectric tensor
   LRPA    =     F    only Hartree local field effects (RPA)
   LNABLA  =     F    use nabla operator in PAW spheres
   LVEL    =     F    velocity operator in full k-point grid
   LINTERFAST=   F  fast interpolation
   KINTER  =     0    interpolate to denser k-point grid
   CSHIFT  =0.1000    complex shift for real part using Kramers Kronig
   OMEGAMAX=  -1.0    maximum frequency
   DEG_THRESHOLD= 0.2000000E-02 threshold for treating states as degnerate
   RTIME   =   -0.100 relaxation time in fs
  (WPLASMAI=    0.000 imaginary part of plasma frequency in eV, 0.658/RTIME)
   DFIELD  = 0.0000000 0.0000000 0.0000000 field for delta impulse in time
 
 Orbital magnetization related:
   ORBITALMAG=     F  switch on orbital magnetization
   LCHIMAG   =     F  perturbation theory with respect to B field
   DQ        =  0.001000  dq finite difference perturbation B field
   LLRAUG    =     F  two centre corrections for induced B field



--------------------------------------------------------------------------------------------------------


 Static calculation
 charge density and potential will be updated during run
 non-spin polarized calculation
 Conjugate gradient for all bands (Freysoldt, et al. PRB 79, 241103 (2009))
 preconditioned conjugated gradient                                        
 perform sub-space diagonalisation
    before iterative eigenvector-optimisation
 modified Broyden-mixing scheme, WC =      100.0
 initial mixing is a Kerker type mixing with AMIX =  0.4000 and BMIX =      1.0000
 Hartree-type preconditioning will be used
 using additional bands           28
 reciprocal scheme for non local part
 use partial core corrections
 no Harris-corrections to forces 
 use gradient corrections 
 use of overlap-Matrix (Vanderbilt PP)
 Gauss-broadening in eV      SIGMA  =   0.01


--------------------------------------------------------------------------------------------------------


  energy-cutoff  :     1000.00
  volume of cell :     3288.85
      direct lattice vectors                 reciprocal lattice vectors
    12.325000000  0.000000000  0.000000000     0.081135903  0.046843835  0.000000000
    -6.162500000 10.673763102  0.000000000     0.000000000  0.093687670  0.000000000
     0.000000000  0.000000000 25.000000000     0.000000000  0.000000000  0.040000000

  length of vectors
    12.325000000 12.325000000 25.000000000     0.093687670  0.093687670  0.040000000


 
 k-points in units of 2pi/SCALE and weight: auto                                    
   0.00000000  0.00000000  0.00000000       1.000
 
 k-points in reciprocal lattice and weights: auto                                    
   0.00000000  0.00000000  0.00000000       1.000
 
 position of ions in fractional coordinates (direct lattice) 
   0.97245084  0.00032082  0.00056671
   0.03911838  0.13365950  0.00044017
   0.17244363  0.00029545  0.00049963
   0.23909628  0.13364792  0.00025647
   0.97245206  0.20032201  0.00048522
   0.03912836  0.33364377  0.00044415
   0.17245176  0.20035455  0.00021917
   0.23912436  0.33366572  0.00007226
   0.37246557  0.00032440  0.00045391
   0.43913747  0.13361994  0.00025834
   0.97244982  0.40030936  0.00054761
   0.03912498  0.53363679  0.00057341
   0.37241618  0.40032948  0.00000000
   0.43909960  0.53363898  0.00023241
   0.57244368  0.00031213  0.00055958
   0.63911021  0.13363175  0.00054727
   0.97245270  0.60030565  0.00064029
   0.03912449  0.73364036  0.00065451
   0.57243347  0.60030624  0.00040289
   0.63911189  0.73364188  0.00052791
   0.17245463  0.40031823  0.00028904
   0.23912018  0.53363655  0.00037851
   0.37245975  0.20029599  0.00008900
   0.43910710  0.33367342  0.00005576
   0.17245216  0.60031151  0.00052434
   0.23912337  0.73363857  0.00057513
   0.57243108  0.20028917  0.00041330
   0.63911277  0.33361863  0.00046238
   0.37243981  0.60030802  0.00036284
   0.43911609  0.73363786  0.00049419
   0.57246936  0.40032050  0.00033992
   0.63911941  0.53365087  0.00045961
   0.77244572  0.00031543  0.00059616
   0.83911628  0.13364020  0.00057531
   0.77244051  0.20030743  0.00058103
   0.83912024  0.33363573  0.00058547
   0.77244632  0.40029837  0.00058298
   0.83911898  0.53363396  0.00062110
   0.77245614  0.60030817  0.00059571
   0.83911503  0.73364318  0.00063151
   0.97245531  0.80030558  0.00065223
   0.03911471  0.93364329  0.00059805
   0.17245797  0.80031221  0.00062337
   0.23913455  0.93364719  0.00054485
   0.37245140  0.80031667  0.00055140
   0.43912449  0.93364477  0.00054143
   0.57244110  0.80031005  0.00053453
   0.63911507  0.93363899  0.00058764
   0.77244510  0.80031319  0.00060206
   0.83911661  0.93364434  0.00060683
   0.37302101  0.25122688  0.13348399
   0.42087980  0.18931315  0.13606086
   0.32515698  0.31316719  0.13110579
 
 position of ions in cartesian coordinates  (Angst):
  11.98347958  0.00342433  0.01416777
  -0.34154264  1.42664989  0.01100432
   2.12354700  0.00315355  0.01249070
   2.12325634  1.42652621  0.00641170
  10.75098721  2.13818970  0.01213047
  -1.57382270  3.56123457  0.01110375
   0.89078307  2.13853702  0.00547917
   0.89099273  3.56146885  0.00180651
   4.58863896  0.00346260  0.01134782
   4.58893648  1.42622757  0.00645846
   9.51853763  4.27280730  0.01369027
  -2.80632132  5.69591267  0.01433526
   2.12299894  4.27302204  0.00000000
   2.12335237  5.69593607  0.00581036
   7.05344483  0.00333155  0.01398950
   7.05352764  1.42635365  0.01368187
   8.28609598  6.40752033  0.01600723
  -4.03884931  7.83070339  0.01636283
   3.35585531  6.40752662  0.01007237
   3.35598594  7.83071962  0.01319763
  -0.34145776  4.27290193  0.00722612
  -0.34137895  5.69591010  0.00946273
   3.35624236  2.13791198  0.00222492
   3.35573251  3.56155103  0.00139405
  -1.57394684  6.40758280  0.01310850
  -1.57385216  7.83068434  0.01437823
   5.82093107  2.13783916  0.01033241
   5.82114012  3.56096622  0.01155939
   0.89092245  6.40754561  0.00907111
   0.89106251  7.83067670  0.01235474
   4.58870974  4.27292622  0.00849795
   4.58852320  5.69606300  0.01149026
   9.51844972  0.00336679  0.01490402
   9.51855036  1.42644387  0.01438264
   8.28593477  2.13803408  0.01452582
   8.28612680  3.56114872  0.01463668
   7.05356221  4.27268994  0.01457444
   7.05362213  5.69588251  0.01552751
   5.82112285  6.40754723  0.01489279
   5.82101669  7.83073350  0.01578780
   7.05362858  8.54227219  0.01630582
  -5.27148792  9.96548729  0.01495127
  -2.80637951  8.54234295  0.01558431
  -2.80626749  9.96552896  0.01362126
  -0.34148805  8.54239058  0.01378498
  -0.34137657  9.96550309  0.01353576
   2.12342586  8.54231992  0.01336337
   2.12354296  9.96544135  0.01469111
   4.58845581  8.54235337  0.01505154
   4.58852904  9.96549848  0.01517076
   3.04929830  2.68153618  3.33709964
   4.02070129  2.02068374  3.40152150
   2.07766701  3.34267235  3.27764477
 


--------------------------------------------------------------------------------------------------------


 k-point   1 :   0.0000 0.0000 0.0000  plane waves:  236157

 maximum and minimum number of plane-waves per node :      8440     8428

 maximum number of plane-waves:    236157
 maximum index in each direction: 
   IXMAX=   31   IYMAX=   31   IZMAX=   64
   IXMIN=  -31   IYMIN=  -31   IZMIN=  -64


 parallel 3D FFT for wavefunctions:
    minimum data exchange during FFTs selected (reduces bandwidth)
 parallel 3D FFT for charge:
    minimum data exchange during FFTs selected (reduces bandwidth)


 total amount of memory used by VASP MPI-rank0   100580. kBytes
=======================================================================

   base      :      30000. kBytes
   nonl-proj :       8229. kBytes
   fftplans  :      18352. kBytes
   grid      :      30208. kBytes
   one-center:          6. kBytes
   wavefun   :      13785. kBytes
 
     INWAV:  cpu time    0.0000: real time    0.0000
 Broyden mixing: mesh for mixing (old mesh)
   NGX = 63   NGY = 63   NGZ =129
  (NGX  =256   NGY  =256   NGZ  =540)
  gives a total of 512001 points

 initial charge density was supplied:
 charge density of overlapping atoms calculated
 number of electron     216.0000000 magnetization 
 keeping initial charge density in first step


--------------------------------------------------------------------------------------------------------


 Maximum index for augmentation-charges          471 (set IRDMAX)


--------------------------------------------------------------------------------------------------------


 First call to EWALD:  gamma=   0.119
 Maximum number of real-space cells 4x 4x 2
 Maximum number of reciprocal cells 2x 2x 4

    FEWALD:  cpu time    0.0026: real time    0.0027


--------------------------------------- Iteration      1(   1)  ---------------------------------------


vdW kernel read from vdw_kernel.bindat
  0.0000  0.2424  0.5071  0.7962  1.1119  1.4567  1.8333  2.2446  2.6937  3.1842
  3.7199  4.3049  4.9438  5.6415  6.4036  7.2358  8.1446  9.1372 10.2212 11.4050
 12.6979 14.1099 15.6519 17.3360 19.1751 21.1837 23.3773 25.7729 28.3892 31.2465
 34.3669 37.7748 41.4965 45.5611 50.0000
 
    POTLOK:  cpu time    4.5779: real time    4.6267
    SETDIJ:  cpu time    0.0550: real time    0.0553
    TRIAL :  cpu time    2.1321: real time    2.1567
    CORREC:  cpu time    0.0005: real time    0.0007
    --------------------------------------------
      LOOP:  cpu time    6.7682: real time    6.8860

 eigenvalue-minimisations  :   296
 total energy-change (2. order) : 0.2804917E+04  (-0.1023390E+05)
 number of electron     216.0000000 magnetization 
 augmentation part      216.0000000 magnetization 

 Free energy of the ion-electron system (eV)
  ---------------------------------------------------
  alpha Z        PSCENC =        47.94900195
  Ewald energy   TEWEN  =     47232.99051633
  -Hartree energ DENC   =    -53301.77898108
  -exchange      EXHF   =         0.00000000
  -V(xc)+E(xc)   XCENC  =       352.79613829
  PAW double counting   =      6601.42964284    -6299.49404826
  entropy T*S    EENTRO =        -0.00000000
  eigenvalues    EBANDS =      -386.38825691
  atomic energy  EATOM  =      8557.41276814
  ---------------------------------------------------
  free energy    TOTEN  =      2804.91678130 eV

  energy without entropy =     2804.91678130  energy(sigma->0) =     2804.91678130


--------------------------------------------------------------------------------------------------------




--------------------------------------- Iteration      1(   2)  ---------------------------------------


    TRIAL :  cpu time    2.9000: real time    2.9268
    CORREC:  cpu time    0.0001: real time    0.0001
    --------------------------------------------
      LOOP:  cpu time    2.9597: real time    2.9888

 eigenvalue-minimisations  :   448
 total energy-change (2. order) :-0.2315596E+04  (-0.2166706E+04)
 number of electron     216.0000000 magnetization 
 augmentation part      216.0000000 magnetization 

 Free energy of the ion-electron system (eV)
  ---------------------------------------------------
  alpha Z        PSCENC =        47.94900195
  Ewald energy   TEWEN  =     47232.99051633
  -Hartree energ DENC   =    -53301.77898108
  -exchange      EXHF   =         0.00000000
  -V(xc)+E(xc)   XCENC  =       352.79613829
  PAW double counting   =      6601.42964284    -6299.49404826
  entropy T*S    EENTRO =        -0.00000000
  eigenvalues    EBANDS =     -2701.98455163
  atomic energy  EATOM  =      8557.41276814
  ---------------------------------------------------
  free energy    TOTEN  =       489.32048659 eV

  energy without entropy =      489.32048659  energy(sigma->0) =      489.32048659


--------------------------------------------------------------------------------------------------------




--------------------------------------- Iteration      1(   3)  ---------------------------------------


    TRIAL :  cpu time    2.3499: real time    2.3707
    CORREC:  cpu time    0.0001: real time    0.0001
    --------------------------------------------
      LOOP:  cpu time    2.4015: real time    2.4233

 eigenvalue-minimisations  :   344
 total energy-change (2. order) :-0.8368780E+03  (-0.8247357E+03)
 number of electron     216.0000000 magnetization 
 augmentation part      216.0000000 magnetization 

 Free energy of the ion-electron system (eV)
  ---------------------------------------------------
  alpha Z        PSCENC =        47.94900195
  Ewald energy   TEWEN  =     47232.99051633
  -Hartree energ DENC   =    -53301.77898108
  -exchange      EXHF   =         0.00000000
  -V(xc)+E(xc)   XCENC  =       352.79613829
  PAW double counting   =      6601.42964284    -6299.49404826
  entropy T*S    EENTRO =        -0.00000000
  eigenvalues    EBANDS =     -3538.86256125
  atomic energy  EATOM  =      8557.41276814
  ---------------------------------------------------
  free energy    TOTEN  =      -347.55752304 eV

  energy without entropy =     -347.55752304  energy(sigma->0) =     -347.55752304


--------------------------------------------------------------------------------------------------------




--------------------------------------- Iteration      1(   4)  ---------------------------------------


    TRIAL :  cpu time    2.3108: real time    2.3312
    CORREC:  cpu time    0.0001: real time    0.0001
    --------------------------------------------
      LOOP:  cpu time    2.3586: real time    2.3805

 eigenvalue-minimisations  :   336
 total energy-change (2. order) :-0.8214845E+02  (-0.8093912E+02)
 number of electron     216.0000000 magnetization 
 augmentation part      216.0000000 magnetization 

 Free energy of the ion-electron system (eV)
  ---------------------------------------------------
  alpha Z        PSCENC =        47.94900195
  Ewald energy   TEWEN  =     47232.99051633
  -Hartree energ DENC   =    -53301.77898108
  -exchange      EXHF   =         0.00000000
  -V(xc)+E(xc)   XCENC  =       352.79613829
  PAW double counting   =      6601.42964284    -6299.49404826
  entropy T*S    EENTRO =        -0.00000000
  eigenvalues    EBANDS =     -3621.01101102
  atomic energy  EATOM  =      8557.41276814
  ---------------------------------------------------
  free energy    TOTEN  =      -429.70597280 eV

  energy without entropy =     -429.70597280  energy(sigma->0) =     -429.70597280


--------------------------------------------------------------------------------------------------------




--------------------------------------- Iteration      1(   5)  ---------------------------------------


    TRIAL :  cpu time    2.4349: real time    2.4562
    CORREC:  cpu time    0.0001: real time    0.0001
    CHARGE:  cpu time    0.1812: real time    0.1833
    --------------------------------------------
      LOOP:  cpu time    2.6719: real time    2.6968

 eigenvalue-minimisations  :   360
 total energy-change (2. order) :-0.2632399E+01  (-0.2613591E+01)
 number of electron     216.0000000 magnetization 
 augmentation part       -0.1510162 magnetization 

 Free energy of the ion-electron system (eV)
  ---------------------------------------------------
  alpha Z        PSCENC =        47.94900195
  Ewald energy   TEWEN  =     47232.99051633
  -Hartree energ DENC   =    -53301.77898108
  -exchange      EXHF   =         0.00000000
  -V(xc)+E(xc)   XCENC  =       352.79613829
  PAW double counting   =      6601.42964284    -6299.49404826
  entropy T*S    EENTRO =        -0.00000000
  eigenvalues    EBANDS =     -3623.64341035
  atomic energy  EATOM  =      8557.41276814
  ---------------------------------------------------
  free energy    TOTEN  =      -432.33837214 eV

  energy without entropy =     -432.33837214  energy(sigma->0) =     -432.33837214


--------------------------------------------------------------------------------------------------------




--------------------------------------- Iteration      1(   6)  ---------------------------------------


    POTLOK:  cpu time    4.2823: real time    4.3119
    SETDIJ:  cpu time    0.0534: real time    0.0536
    TRIAL :  cpu time    1.1759: real time    1.1869
    CORREC:  cpu time    4.7457: real time    4.7830
    CHARGE:  cpu time    0.1803: real time    0.1827
    --------------------------------------------
      LOOP:  cpu time   10.4865: real time   10.5774

 eigenvalue-minimisations  :     0
 total energy-change (2. order) : 0.6326797E+02  (-0.2139710E+02)
 number of electron     216.0000000 magnetization 
 augmentation part       -0.2791876 magnetization 

 Free energy of the ion-electron system (eV)
  ---------------------------------------------------
  alpha Z        PSCENC =        47.94900195
  Ewald energy   TEWEN  =     47232.99051633
  -Hartree energ DENC   =    -54866.01097167
  -exchange      EXHF   =         0.00000000
  -V(xc)+E(xc)   XCENC  =       408.02080947
  PAW double counting   =     52718.48865685   -52440.60190223
  entropy T*S    EENTRO =        -0.00000000
  eigenvalues    EBANDS =     -2027.31928468
  atomic energy  EATOM  =      8557.41276814
  ---------------------------------------------------
  free energy    TOTEN  =      -369.07040582 eV

  energy without entropy =     -369.07040582  energy(sigma->0) =     -369.07040582


--------------------------------------------------------------------------------------------------------




--------------------------------------- Iteration      1(   7)  ---------------------------------------


    POTLOK:  cpu time    4.2523: real time    4.2920
    SETDIJ:  cpu time    0.0529: real time    0.0531
    TRIAL :  cpu time    1.1818: real time    1.1967
    CORREC:  cpu time    4.7403: real time    4.7770
    CHARGE:  cpu time    0.1811: real time    0.1830
    --------------------------------------------
      LOOP:  cpu time   10.4794: real time   10.5750

 eigenvalue-minimisations  :     0
 total energy-change (2. order) :-0.2149218E+02  (-0.2157542E+01)
 number of electron     216.0000000 magnetization 
 augmentation part       -0.3324897 magnetization 

 Free energy of the ion-electron system (eV)
  ---------------------------------------------------
  alpha Z        PSCENC =        47.94900195
  Ewald energy   TEWEN  =     47232.99051633
  -Hartree energ DENC   =    -54267.02320200
  -exchange      EXHF   =         0.00000000
  -V(xc)+E(xc)   XCENC  =       385.73963462
  PAW double counting   =     68671.82666216   -68386.91692677
  entropy T*S    EENTRO =        -0.00000000
  eigenvalues    EBANDS =     -2632.54104263
  atomic energy  EATOM  =      8557.41276814
  ---------------------------------------------------
  free energy    TOTEN  =      -390.56258820 eV

  energy without entropy =     -390.56258820  energy(sigma->0) =     -390.56258820


--------------------------------------------------------------------------------------------------------




--------------------------------------- Iteration      1(   8)  ---------------------------------------


    POTLOK:  cpu time    4.2491: real time    4.2794
    SETDIJ:  cpu time    0.0531: real time    0.0532
    TRIAL :  cpu time    1.1655: real time    1.1764
    CORREC:  cpu time    4.7576: real time    4.7927
    CHARGE:  cpu time    0.1818: real time    0.1836
    --------------------------------------------
      LOOP:  cpu time   10.4765: real time   10.5566

 eigenvalue-minimisations  :     0
 total energy-change (2. order) :-0.2156384E+01  (-0.6279992E+00)
 number of electron     216.0000000 magnetization 
 augmentation part       -0.3549592 magnetization 

 Free energy of the ion-electron system (eV)
  ---------------------------------------------------
  alpha Z        PSCENC =        47.94900195
  Ewald energy   TEWEN  =     47232.99051633
  -Hartree energ DENC   =    -54243.59626606
  -exchange      EXHF   =         0.00000000
  -V(xc)+E(xc)   XCENC  =       385.28592672
  PAW double counting   =     74084.71353320   -73798.68507202
  entropy T*S    EENTRO =        -0.00000000
  eigenvalues    EBANDS =     -2658.78938079
  atomic energy  EATOM  =      8557.41276814
  ---------------------------------------------------
  free energy    TOTEN  =      -392.71897252 eV

  energy without entropy =     -392.71897252  energy(sigma->0) =     -392.71897252


--------------------------------------------------------------------------------------------------------




--------------------------------------- Iteration      1(   9)  ---------------------------------------


    POTLOK:  cpu time    4.2712: real time    4.3020
    SETDIJ:  cpu time    0.0532: real time    0.0533
    TRIAL :  cpu time    1.1687: real time    1.1795
    CORREC:  cpu time    4.7542: real time    4.7896
    CHARGE:  cpu time    0.1814: real time    0.1831
    --------------------------------------------
      LOOP:  cpu time   10.4558: real time   10.5399

 eigenvalue-minimisations  :     0
 total energy-change (2. order) :-0.6279287E+00  (-0.2587943E+00)
 number of electron     216.0000000 magnetization 
 augmentation part       -0.3634647 magnetization 

 Free energy of the ion-electron system (eV)
  ---------------------------------------------------
  alpha Z        PSCENC =        47.94900195
  Ewald energy   TEWEN  =     47232.99051633
  -Hartree energ DENC   =    -54256.24505969
  -exchange      EXHF   =         0.00000000
  -V(xc)+E(xc)   XCENC  =       385.67459611
  PAW double counting   =     78521.73528430   -78235.22992909
  entropy T*S    EENTRO =        -0.00000000
  eigenvalues    EBANDS =     -2647.63407932
  atomic energy  EATOM  =      8557.41276814
  ---------------------------------------------------
  free energy    TOTEN  =      -393.34690125 eV

  energy without entropy =     -393.34690125  energy(sigma->0) =     -393.34690125


--------------------------------------------------------------------------------------------------------




--------------------------------------- Iteration      1(  10)  ---------------------------------------


    POTLOK:  cpu time    4.2679: real time    4.3020
    SETDIJ:  cpu time    0.0533: real time    0.0535
    TRIAL :  cpu time    1.1662: real time    1.1771
    CORREC:  cpu time    4.7245: real time    4.7763
    CHARGE:  cpu time    0.1813: real time    0.1831
    --------------------------------------------
      LOOP:  cpu time   10.4571: real time   10.5578

 eigenvalue-minimisations  :     0
 total energy-change (2. order) :-0.2578237E+00  (-0.1208577E+00)
 number of electron     216.0000000 magnetization 
 augmentation part       -0.3601490 magnetization 

 Free energy of the ion-electron system (eV)
  ---------------------------------------------------
  alpha Z        PSCENC =        47.94900195
  Ewald energy   TEWEN  =     47232.99051633
  -Hartree energ DENC   =    -54249.97323026
  -exchange      EXHF   =         0.00000000
  -V(xc)+E(xc)   XCENC  =       385.57798772
  PAW double counting   =     80382.16839356   -80095.35851078
  entropy T*S    EENTRO =        -0.00000000
  eigenvalues    EBANDS =     -2654.37165165
  atomic energy  EATOM  =      8557.41276814
  ---------------------------------------------------
  free energy    TOTEN  =      -393.60472497 eV

  energy without entropy =     -393.60472497  energy(sigma->0) =     -393.60472497


--------------------------------------------------------------------------------------------------------




--------------------------------------- Iteration      1(  11)  ---------------------------------------


    POTLOK:  cpu time    4.2441: real time    4.2749
    SETDIJ:  cpu time    0.0530: real time    0.0532
    TRIAL :  cpu time    1.1665: real time    1.1773
    CORREC:  cpu time    4.7597: real time    4.7953
    CHARGE:  cpu time    0.1806: real time    0.1825
    --------------------------------------------
      LOOP:  cpu time   10.4939: real time   10.5759

 eigenvalue-minimisations  :     0
 total energy-change (2. order) :-0.1201365E+00  (-0.4669109E-01)
 number of electron     216.0000000 magnetization 
 augmentation part       -0.3570205 magnetization 

 Free energy of the ion-electron system (eV)
  ---------------------------------------------------
  alpha Z        PSCENC =        47.94900195
  Ewald energy   TEWEN  =     47232.99051633
  -Hartree energ DENC   =    -54240.74978918
  -exchange      EXHF   =         0.00000000
  -V(xc)+E(xc)   XCENC  =       385.46678215
  PAW double counting   =     80370.83772741   -80083.97723644
  entropy T*S    EENTRO =        -0.00000000
  eigenvalues    EBANDS =     -2663.65463184
  atomic energy  EATOM  =      8557.41276814
  ---------------------------------------------------
  free energy    TOTEN  =      -393.72486147 eV

  energy without entropy =     -393.72486147  energy(sigma->0) =     -393.72486147


--------------------------------------------------------------------------------------------------------




--------------------------------------- Iteration      1(  12)  ---------------------------------------


    POTLOK:  cpu time    4.3301: real time    4.3645
    SETDIJ:  cpu time    0.0530: real time    0.0532
    TRIAL :  cpu time    1.1861: real time    1.1973
    CORREC:  cpu time    4.7623: real time    4.7989
    CHARGE:  cpu time    0.1816: real time    0.1834
    --------------------------------------------
      LOOP:  cpu time   10.5853: real time   10.6713

 eigenvalue-minimisations  :     0
 total energy-change (2. order) :-0.4653614E-01  (-0.1387544E-01)
 number of electron     216.0000000 magnetization 
 augmentation part       -0.3562361 magnetization 

 Free energy of the ion-electron system (eV)
  ---------------------------------------------------
  alpha Z        PSCENC =        47.94900195
  Ewald energy   TEWEN  =     47232.99051633
  -Hartree energ DENC   =    -54236.77514327
  -exchange      EXHF   =         0.00000000
  -V(xc)+E(xc)   XCENC  =       385.36344369
  PAW double counting   =     79777.67660425   -79490.88739369
  entropy T*S    EENTRO =        -0.00000000
  eigenvalues    EBANDS =     -2667.50119502
  atomic energy  EATOM  =      8557.41276814
  ---------------------------------------------------
  free energy    TOTEN  =      -393.77139762 eV

  energy without entropy =     -393.77139762  energy(sigma->0) =     -393.77139762


--------------------------------------------------------------------------------------------------------




--------------------------------------- Iteration      1(  13)  ---------------------------------------


    POTLOK:  cpu time    4.2513: real time    4.2925
    SETDIJ:  cpu time    0.0530: real time    0.0536
    TRIAL :  cpu time    1.1691: real time    1.1804
    CORREC:  cpu time    4.7364: real time    4.7836
    CHARGE:  cpu time    0.1801: real time    0.1819
    --------------------------------------------
      LOOP:  cpu time   10.4184: real time   10.5497

 eigenvalue-minimisations  :     0
 total energy-change (2. order) :-0.1386214E-01  (-0.4144887E-02)
 number of electron     216.0000000 magnetization 
 augmentation part       -0.3559658 magnetization 

 Free energy of the ion-electron system (eV)
  ---------------------------------------------------
  alpha Z        PSCENC =        47.94900195
  Ewald energy   TEWEN  =     47232.99051633
  -Hartree energ DENC   =    -54236.48538131
  -exchange      EXHF   =         0.00000000
  -V(xc)+E(xc)   XCENC  =       385.32643964
  PAW double counting   =     79314.41603364   -79027.69050107
  entropy T*S    EENTRO =        -0.00000000
  eigenvalues    EBANDS =     -2667.70413709
  atomic energy  EATOM  =      8557.41276814
  ---------------------------------------------------
  free energy    TOTEN  =      -393.78525975 eV

  energy without entropy =     -393.78525975  energy(sigma->0) =     -393.78525975


--------------------------------------------------------------------------------------------------------




--------------------------------------- Iteration      1(  14)  ---------------------------------------


    POTLOK:  cpu time    4.2797: real time    4.3168
    SETDIJ:  cpu time    0.0531: real time    0.0533
    TRIAL :  cpu time    1.1663: real time    1.1780
    CORREC:  cpu time    4.7231: real time    4.7635
    CHARGE:  cpu time    0.1805: real time    0.1823
    --------------------------------------------
      LOOP:  cpu time   10.4156: real time   10.5497

 eigenvalue-minimisations  :     0
 total energy-change (2. order) :-0.4142276E-02  (-0.1509315E-02)
 number of electron     216.0000000 magnetization 
 augmentation part       -0.3562909 magnetization 

 Free energy of the ion-electron system (eV)
  ---------------------------------------------------
  alpha Z        PSCENC =        47.94900195
  Ewald energy   TEWEN  =     47232.99051633
  -Hartree energ DENC   =    -54236.46538430
  -exchange      EXHF   =         0.00000000
  -V(xc)+E(xc)   XCENC  =       385.30355959
  PAW double counting   =     79120.28686160   -78833.59183929
  entropy T*S    EENTRO =        -0.00000000
  eigenvalues    EBANDS =     -2667.67488606
  atomic energy  EATOM  =      8557.41276814
  ---------------------------------------------------
  free energy    TOTEN  =      -393.78940203 eV

  energy without entropy =     -393.78940203  energy(sigma->0) =     -393.78940203


--------------------------------------------------------------------------------------------------------




--------------------------------------- Iteration      1(  15)  ---------------------------------------


    POTLOK:  cpu time    4.3427: real time    4.3777
    SETDIJ:  cpu time    0.0533: real time    0.0534
    TRIAL :  cpu time    1.1647: real time    1.1763
    CORREC:  cpu time    4.7872: real time    4.8340
    CHARGE:  cpu time    0.1805: real time    0.1824
    --------------------------------------------
      LOOP:  cpu time   10.6164: real time   10.7339

 eigenvalue-minimisations  :     0
 total energy-change (2. order) :-0.1507512E-02  (-0.7785855E-03)
 number of electron     216.0000000 magnetization 
 augmentation part       -0.3563650 magnetization 

 Free energy of the ion-electron system (eV)
  ---------------------------------------------------
  alpha Z        PSCENC =        47.94900195
  Ewald energy   TEWEN  =     47232.99051633
  -Hartree energ DENC   =    -54236.15689250
  -exchange      EXHF   =         0.00000000
  -V(xc)+E(xc)   XCENC  =       385.27735254
  PAW double counting   =     79041.57190598   -78754.88501644
  entropy T*S    EENTRO =        -0.00000000
  eigenvalues    EBANDS =     -2667.95054555
  atomic energy  EATOM  =      8557.41276814
  ---------------------------------------------------
  free energy    TOTEN  =      -393.79090954 eV

  energy without entropy =     -393.79090954  energy(sigma->0) =     -393.79090954


--------------------------------------------------------------------------------------------------------




--------------------------------------- Iteration      1(  16)  ---------------------------------------


    POTLOK:  cpu time    4.2543: real time    4.2877
    SETDIJ:  cpu time    0.0586: real time    0.0594
    TRIAL :  cpu time    1.1654: real time    1.1772
    CORREC:  cpu time    4.7351: real time    4.7757
    CHARGE:  cpu time    0.1807: real time    0.1826
    --------------------------------------------
      LOOP:  cpu time   10.4758: real time   10.5685

 eigenvalue-minimisations  :     0
 total energy-change (2. order) :-0.7767168E-03  (-0.4496878E-03)
 number of electron     216.0000000 magnetization 
 augmentation part       -0.3563778 magnetization 

 Free energy of the ion-electron system (eV)
  ---------------------------------------------------
  alpha Z        PSCENC =        47.94900195
  Ewald energy   TEWEN  =     47232.99051633
  -Hartree energ DENC   =    -54236.61918554
  -exchange      EXHF   =         0.00000000
  -V(xc)+E(xc)   XCENC  =       385.29302742
  PAW double counting   =     78965.89043038   -78679.20996856
  entropy T*S    EENTRO =        -0.00000000
  eigenvalues    EBANDS =     -2667.49827638
  atomic energy  EATOM  =      8557.41276814
  ---------------------------------------------------
  free energy    TOTEN  =      -393.79168626 eV

  energy without entropy =     -393.79168626  energy(sigma->0) =     -393.79168626


--------------------------------------------------------------------------------------------------------




--------------------------------------- Iteration      1(  17)  ---------------------------------------


    POTLOK:  cpu time    4.2570: real time    4.2906
    SETDIJ:  cpu time    0.0529: real time    0.0531
    TRIAL :  cpu time    1.1663: real time    1.1781
    CORREC:  cpu time    4.7186: real time    4.7577
    CHARGE:  cpu time    0.1805: real time    0.1826
    --------------------------------------------
      LOOP:  cpu time   10.4492: real time   10.5519

 eigenvalue-minimisations  :     0
 total energy-change (2. order) :-0.4493515E-03  (-0.1970340E-03)
 number of electron     216.0000000 magnetization 
 augmentation part       -0.3563603 magnetization 

 Free energy of the ion-electron system (eV)
  ---------------------------------------------------
  alpha Z        PSCENC =        47.94900195
  Ewald energy   TEWEN  =     47232.99051633
  -Hartree energ DENC   =    -54236.82310566
  -exchange      EXHF   =         0.00000000
  -V(xc)+E(xc)   XCENC  =       385.29892450
  PAW double counting   =     78904.68969520   -78618.00674645
  entropy T*S    EENTRO =        -0.00000000
  eigenvalues    EBANDS =     -2667.30318962
  atomic energy  EATOM  =      8557.41276814
  ---------------------------------------------------
  free energy    TOTEN  =      -393.79213561 eV

  energy without entropy =     -393.79213561  energy(sigma->0) =     -393.79213561


--------------------------------------------------------------------------------------------------------




--------------------------------------- Iteration      1(  18)  ---------------------------------------


    POTLOK:  cpu time    4.2692: real time    4.3042
    SETDIJ:  cpu time    0.0533: real time    0.0534
    TRIAL :  cpu time    1.1646: real time    1.1777
    CORREC:  cpu time    4.7366: real time    4.7846
    CHARGE:  cpu time    0.1788: real time    0.1807
    --------------------------------------------
      LOOP:  cpu time   10.4594: real time   10.5621

 eigenvalue-minimisations  :     0
 total energy-change (2. order) :-0.1975271E-03  (-0.7212874E-04)
 number of electron     216.0000000 magnetization 
 augmentation part       -0.3563745 magnetization 

 Free energy of the ion-electron system (eV)
  ---------------------------------------------------
  alpha Z        PSCENC =        47.94900195
  Ewald energy   TEWEN  =     47232.99051633
  -Hartree energ DENC   =    -54236.91271639
  -exchange      EXHF   =         0.00000000
  -V(xc)+E(xc)   XCENC  =       385.30164700
  PAW double counting   =     78896.66671385   -78609.97919736
  entropy T*S    EENTRO =        -0.00000000
  eigenvalues    EBANDS =     -2667.22106666
  atomic energy  EATOM  =      8557.41276814
  ---------------------------------------------------
  free energy    TOTEN  =      -393.79233313 eV

  energy without entropy =     -393.79233313  energy(sigma->0) =     -393.79233313


--------------------------------------------------------------------------------------------------------




--------------------------------------- Iteration      1(  19)  ---------------------------------------


    POTLOK:  cpu time    4.2629: real time    4.2955
    SETDIJ:  cpu time    0.0529: real time    0.0532
    TRIAL :  cpu time    1.1636: real time    1.1775
    CORREC:  cpu time    4.7328: real time    4.7782
    CHARGE:  cpu time    0.1801: real time    0.1818
    --------------------------------------------
      LOOP:  cpu time   10.4548: real time   10.5608

 eigenvalue-minimisations  :     0
 total energy-change (2. order) :-0.7241890E-04  (-0.2986207E-04)
 number of electron     216.0000000 magnetization 
 augmentation part       -0.3563828 magnetization 

 Free energy of the ion-electron system (eV)
  ---------------------------------------------------
  alpha Z        PSCENC =        47.94900195
  Ewald energy   TEWEN  =     47232.99051633
  -Hartree energ DENC   =    -54236.95512432
  -exchange      EXHF   =         0.00000000
  -V(xc)+E(xc)   XCENC  =       385.30341469
  PAW double counting   =     78918.76291991   -78632.07303480
  entropy T*S    EENTRO =        -0.00000000
  eigenvalues    EBANDS =     -2667.18286747
  atomic energy  EATOM  =      8557.41276814
  ---------------------------------------------------
  free energy    TOTEN  =      -393.79240555 eV

  energy without entropy =     -393.79240555  energy(sigma->0) =     -393.79240555


--------------------------------------------------------------------------------------------------------




--------------------------------------- Iteration      1(  20)  ---------------------------------------


    POTLOK:  cpu time    4.2296: real time    4.2670
    SETDIJ:  cpu time    0.0530: real time    0.0532
    TRIAL :  cpu time    1.1630: real time    1.1773
    CORREC:  cpu time    4.7245: real time    4.7674
    CHARGE:  cpu time    0.1809: real time    0.1830
    --------------------------------------------
      LOOP:  cpu time   10.3865: real time   10.5139

 eigenvalue-minimisations  :     0
 total energy-change (2. order) :-0.2996996E-04  (-0.1469187E-04)
 number of electron     216.0000000 magnetization 
 augmentation part       -0.3563545 magnetization 

 Free energy of the ion-electron system (eV)
  ---------------------------------------------------
  alpha Z        PSCENC =        47.94900195
  Ewald energy   TEWEN  =     47232.99051633
  -Hartree energ DENC   =    -54236.91334898
  -exchange      EXHF   =         0.00000000
  -V(xc)+E(xc)   XCENC  =       385.30267556
  PAW double counting   =     78943.82072035   -78657.13011141
  entropy T*S    EENTRO =        -0.00000000
  eigenvalues    EBANDS =     -2667.22465748
  atomic energy  EATOM  =      8557.41276814
  ---------------------------------------------------
  free energy    TOTEN  =      -393.79243552 eV

  energy without entropy =     -393.79243552  energy(sigma->0) =     -393.79243552


--------------------------------------------------------------------------------------------------------




--------------------------------------- Iteration      1(  21)  ---------------------------------------


    POTLOK:  cpu time    4.2788: real time    4.3106
    SETDIJ:  cpu time    0.0533: real time    0.0534
    TRIAL :  cpu time    1.1710: real time    1.1833
    CORREC:  cpu time    4.7393: real time    4.7897
    CHARGE:  cpu time    0.1784: real time    0.1821
    --------------------------------------------
      LOOP:  cpu time   10.4627: real time   10.5614

 eigenvalue-minimisations  :     0
 total energy-change (2. order) :-0.1466586E-04  (-0.7349624E-05)
 number of electron     216.0000000 magnetization 
 augmentation part       -0.3563413 magnetization 

 Free energy of the ion-electron system (eV)
  ---------------------------------------------------
  alpha Z        PSCENC =        47.94900195
  Ewald energy   TEWEN  =     47232.99051633
  -Hartree energ DENC   =    -54236.88189073
  -exchange      EXHF   =         0.00000000
  -V(xc)+E(xc)   XCENC  =       385.30246789
  PAW double counting   =     78958.96125297   -78672.27105945
  entropy T*S    EENTRO =        -0.00000000
  eigenvalues    EBANDS =     -2667.25550730
  atomic energy  EATOM  =      8557.41276814
  ---------------------------------------------------
  free energy    TOTEN  =      -393.79245019 eV

  energy without entropy =     -393.79245019  energy(sigma->0) =     -393.79245019


--------------------------------------------------------------------------------------------------------




--------------------------------------- Iteration      1(  22)  ---------------------------------------


    POTLOK:  cpu time    4.2439: real time    4.2770
    SETDIJ:  cpu time    0.0532: real time    0.0534
    TRIAL :  cpu time    1.1632: real time    1.1769
    CORREC:  cpu time    4.7167: real time    4.7592
    CHARGE:  cpu time    0.1808: real time    0.1826
    --------------------------------------------
      LOOP:  cpu time   10.4057: real time   10.5004

 eigenvalue-minimisations  :     0
 total energy-change (2. order) :-0.7295384E-05  (-0.3354706E-05)
 number of electron     216.0000000 magnetization 
 augmentation part       -0.3563284 magnetization 

 Free energy of the ion-electron system (eV)
  ---------------------------------------------------
  alpha Z        PSCENC =        47.94900195
  Ewald energy   TEWEN  =     47232.99051633
  -Hartree energ DENC   =    -54236.84006110
  -exchange      EXHF   =         0.00000000
  -V(xc)+E(xc)   XCENC  =       385.30126080
  PAW double counting   =     78962.66758175   -78675.97764235
  entropy T*S    EENTRO =        -0.00000000
  eigenvalues    EBANDS =     -2667.29588301
  atomic energy  EATOM  =      8557.41276814
  ---------------------------------------------------
  free energy    TOTEN  =      -393.79245748 eV

  energy without entropy =     -393.79245748  energy(sigma->0) =     -393.79245748


--------------------------------------------------------------------------------------------------------




--------------------------------------- Iteration      1(  23)  ---------------------------------------


    POTLOK:  cpu time    4.2363: real time    4.2775
    SETDIJ:  cpu time    0.0530: real time    0.0532
    TRIAL :  cpu time    1.1616: real time    1.1769
    CORREC:  cpu time    4.7327: real time    4.7757
    CHARGE:  cpu time    0.1801: real time    0.1822
    --------------------------------------------
      LOOP:  cpu time   10.3969: real time   10.5122

 eigenvalue-minimisations  :     0
 total energy-change (2. order) :-0.3345252E-05  (-0.1398332E-05)
 number of electron     216.0000000 magnetization 
 augmentation part       -0.3563388 magnetization 

 Free energy of the ion-electron system (eV)
  ---------------------------------------------------
  alpha Z        PSCENC =        47.94900195
  Ewald energy   TEWEN  =     47232.99051633
  -Hartree energ DENC   =    -54236.82832077
  -exchange      EXHF   =         0.00000000
  -V(xc)+E(xc)   XCENC  =       385.30126065
  PAW double counting   =     78960.70588350   -78674.01619406
  entropy T*S    EENTRO =        -0.00000000
  eigenvalues    EBANDS =     -2667.30737657
  atomic energy  EATOM  =      8557.41276814
  ---------------------------------------------------
  free energy    TOTEN  =      -393.79246083 eV

  energy without entropy =     -393.79246083  energy(sigma->0) =     -393.79246083


--------------------------------------------------------------------------------------------------------




--------------------------------------- Iteration      1(  24)  ---------------------------------------


    POTLOK:  cpu time    4.2573: real time    4.2937
    SETDIJ:  cpu time    0.0531: real time    0.0533
    TRIAL :  cpu time    1.1742: real time    1.1920
    CORREC:  cpu time    4.7254: real time    4.7629
    CHARGE:  cpu time    0.1803: real time    0.1821
    --------------------------------------------
      LOOP:  cpu time   10.4285: real time   10.5439

 eigenvalue-minimisations  :     0
 total energy-change (2. order) :-0.1394030E-05  (-0.6555651E-06)
 number of electron     216.0000000 magnetization 
 augmentation part       -0.3563466 magnetization 

 Free energy of the ion-electron system (eV)
  ---------------------------------------------------
  alpha Z        PSCENC =        47.94900195
  Ewald energy   TEWEN  =     47232.99051633
  -Hartree energ DENC   =    -54236.81770839
  -exchange      EXHF   =         0.00000000
  -V(xc)+E(xc)   XCENC  =       385.30093220
  PAW double counting   =     78957.92025598   -78671.23050032
  entropy T*S    EENTRO =        -0.00000000
  eigenvalues    EBANDS =     -2667.31772812
  atomic energy  EATOM  =      8557.41276814
  ---------------------------------------------------
  free energy    TOTEN  =      -393.79246222 eV

  energy without entropy =     -393.79246222  energy(sigma->0) =     -393.79246222


--------------------------------------------------------------------------------------------------------




--------------------------------------- Iteration      1(  25)  ---------------------------------------


    POTLOK:  cpu time    4.2548: real time    4.2861
    SETDIJ:  cpu time    0.0530: real time    0.0531
    TRIAL :  cpu time    1.1667: real time    1.1782
    CORREC:  cpu time    4.7315: real time    4.7688
    CHARGE:  cpu time    0.1807: real time    0.1825
    --------------------------------------------
      LOOP:  cpu time   10.4420: real time   10.5278

 eigenvalue-minimisations  :     0
 total energy-change (2. order) :-0.6378687E-06  (-0.3220830E-06)
 number of electron     216.0000000 magnetization 
 augmentation part       -0.3563546 magnetization 

 Free energy of the ion-electron system (eV)
  ---------------------------------------------------
  alpha Z        PSCENC =        47.94900195
  Ewald energy   TEWEN  =     47232.99051633
  -Hartree energ DENC   =    -54236.82817224
  -exchange      EXHF   =         0.00000000
  -V(xc)+E(xc)   XCENC  =       385.30125139
  PAW double counting   =     78956.03841944   -78669.34870626
  entropy T*S    EENTRO =        -0.00000000
  eigenvalues    EBANDS =     -2667.30754163
  atomic energy  EATOM  =      8557.41276814
  ---------------------------------------------------
  free energy    TOTEN  =      -393.79246286 eV

  energy without entropy =     -393.79246286  energy(sigma->0) =     -393.79246286


--------------------------------------------------------------------------------------------------------




--------------------------------------- Iteration      1(  26)  ---------------------------------------


    POTLOK:  cpu time    4.2494: real time    4.2818
    SETDIJ:  cpu time    0.0532: real time    0.0534
    TRIAL :  cpu time    1.1655: real time    1.1783
    CORREC:  cpu time    4.7349: real time    4.7733
    CHARGE:  cpu time    0.1800: real time    0.1818
    --------------------------------------------
      LOOP:  cpu time   10.4136: real time   10.5098

 eigenvalue-minimisations  :     0
 total energy-change (2. order) :-0.2983870E-06  (-0.1459111E-06)
 number of electron     216.0000000 magnetization 
 augmentation part       -0.3563542 magnetization 

 Free energy of the ion-electron system (eV)
  ---------------------------------------------------
  alpha Z        PSCENC =        47.94900195
  Ewald energy   TEWEN  =     47232.99051633
  -Hartree energ DENC   =    -54236.83046501
  -exchange      EXHF   =         0.00000000
  -V(xc)+E(xc)   XCENC  =       385.30121617
  PAW double counting   =     78955.02067146   -78668.33095822
  entropy T*S    EENTRO =        -0.00000000
  eigenvalues    EBANDS =     -2667.30521398
  atomic energy  EATOM  =      8557.41276814
  ---------------------------------------------------
  free energy    TOTEN  =      -393.79246316 eV

  energy without entropy =     -393.79246316  energy(sigma->0) =     -393.79246316


--------------------------------------------------------------------------------------------------------




--------------------------------------- Iteration      1(  27)  ---------------------------------------


    POTLOK:  cpu time    4.2687: real time    4.3037
    SETDIJ:  cpu time    0.0533: real time    0.0535
    TRIAL :  cpu time    1.1664: real time    1.1781
    CORREC:  cpu time    4.7350: real time    4.7772
    CHARGE:  cpu time    0.1814: real time    0.1832
    --------------------------------------------
      LOOP:  cpu time   10.4603: real time   10.5536

 eigenvalue-minimisations  :     0
 total energy-change (2. order) :-0.1357257E-06  (-0.5899220E-07)
 number of electron     216.0000000 magnetization 
 augmentation part       -0.3563533 magnetization 

 Free energy of the ion-electron system (eV)
  ---------------------------------------------------
  alpha Z        PSCENC =        47.94900195
  Ewald energy   TEWEN  =     47232.99051633
  -Hartree energ DENC   =    -54236.83677959
  -exchange      EXHF   =         0.00000000
  -V(xc)+E(xc)   XCENC  =       385.30136622
  PAW double counting   =     78954.74417068   -78668.05452084
  entropy T*S    EENTRO =        -0.00000000
  eigenvalues    EBANDS =     -2667.29898620
  atomic energy  EATOM  =      8557.41276814
  ---------------------------------------------------
  free energy    TOTEN  =      -393.79246330 eV

  energy without entropy =     -393.79246330  energy(sigma->0) =     -393.79246330


--------------------------------------------------------------------------------------------------------




--------------------------------------- Iteration      1(  28)  ---------------------------------------


    POTLOK:  cpu time    4.2627: real time    4.2952
    SETDIJ:  cpu time    0.0531: real time    0.0533
    TRIAL :  cpu time    1.1665: real time    1.1780
    CORREC:  cpu time    4.7198: real time    4.7574
    EDDIAG:  cpu time    0.4378: real time    0.4427
    CHARGE:  cpu time    0.1785: real time    0.1803
[...]
      16 -86.7793      17 -86.7845      18 -86.7866      19 -86.7894      20 -86.7845
      21 -86.7754      22 -86.7772      23 -86.7986      24 -86.7983      25 -86.7804
      26 -86.7826      27 -86.7826      28 -86.7928      29 -86.7788      30 -86.7804
      31 -86.7998      32 -86.7923      33 -86.7861      34 -86.7820      35 -86.7807
      36 -86.7833      37 -86.7855      38 -86.7882      39 -86.7883      40 -86.7865
      41 -86.7871      42 -86.7901      43 -86.7841      44 -86.7901      45 -86.7800
      46 -86.7792      47 -86.7844      48 -86.7818      49 -86.7872      50 -86.7852
      51 -91.0676      52-120.8357      53-120.8372
 
 
 
 E-fermi :  -4.3591     XC(G=0):  -2.2347     alpha+bet : -1.6890

 Fermi energy:        -4.3591229753

 k-point     1 :       0.0000    0.0000    0.0000
  band No.  band energies     occupation 
      1     -27.9023      2.00000
      2     -26.9523      2.00000
      3     -22.3961      2.00000
      4     -21.4771      2.00000
      5     -21.4726      2.00000
      6     -21.4668      2.00000
      7     -21.4667      2.00000
      8     -21.4640      2.00000
      9     -21.4625      2.00000
     10     -19.6568      2.00000
     11     -19.6560      2.00000
     12     -19.6521      2.00000
     13     -19.6516      2.00000
     14     -19.6503      2.00000
     15     -19.6501      2.00000
     16     -18.7749      2.00000
     17     -18.7740      2.00000
     18     -18.7730      2.00000
     19     -18.7711      2.00000
     20     -18.7707      2.00000
     21     -18.7704      2.00000
     22     -16.6798      2.00000
     23     -16.6789      2.00000
     24     -16.6769      2.00000
     25     -16.6765      2.00000
     26     -16.6731      2.00000
     27     -16.6728      2.00000
     28     -15.6346      2.00000
     29     -15.6340      2.00000
     30     -15.6314      2.00000
     31     -15.6309      2.00000
     32     -15.6303      2.00000
     33     -15.6300      2.00000
     34     -14.3207      2.00000
     35     -14.3205      2.00000
     36     -14.3201      2.00000
     37     -14.3190      2.00000
     38     -14.3188      2.00000
     39     -14.3181      2.00000
     40     -12.7937      2.00000
     41     -12.0242      2.00000
     42     -12.0239      2.00000
     43     -12.0222      2.00000
     44     -12.0220      2.00000
     45     -12.0219      2.00000
     46     -12.0216      2.00000
     47     -11.8572      2.00000
     48     -11.8567      2.00000
     49     -11.8550      2.00000
     50     -11.8546      2.00000
     51     -11.8522      2.00000
     52     -11.8519      2.00000
     53     -11.6842      2.00000
     54     -11.5509      2.00000
     55     -11.5122      2.00000
     56     -10.5610      2.00000
     57     -10.5038      2.00000
     58     -10.5036      2.00000
     59     -10.5033      2.00000
     60     -10.5029      2.00000
     61     -10.5019      2.00000
     62     -10.5017      2.00000
     63      -9.4688      2.00000
     64      -9.4623      2.00000
     65      -9.4616      2.00000
     66      -9.4572      2.00000
     67      -9.4566      2.00000
     68      -9.4515      2.00000
     69      -9.3245      2.00000
     70      -9.3214      2.00000
     71      -9.3208      2.00000
     72      -9.3199      2.00000
     73      -9.3193      2.00000
     74      -9.3180      2.00000
     75      -9.2668      2.00000
     76      -9.2663      2.00000
     77      -9.2661      2.00000
     78      -9.2641      2.00000
     79      -9.2635      2.00000
     80      -9.2626      2.00000
     81      -8.0425      2.00000
     82      -8.0221      2.00000
     83      -7.7124      2.00000
     84      -7.7122      2.00000
     85      -7.7117      2.00000
     86      -7.7104      2.00000
     87      -7.7076      2.00000
     88      -7.7076      2.00000
     89      -7.3526      2.00000
     90      -7.3508      2.00000
     91      -7.3424      2.00000
     92      -7.3415      2.00000
     93      -7.3404      2.00000
     94      -7.3169      2.00000
     95      -6.4635      2.00000
     96      -6.4607      2.00000
     97      -6.4573      2.00000
     98      -6.4527      2.00000
     99      -6.4514      2.00000
    100      -6.4425      2.00000
    101      -6.2880      2.00000
    102      -6.2857      2.00000
    103      -4.4980      2.00000
    104      -4.4951      2.00000
    105      -4.4919      2.00000
    106      -4.4903      2.00000
    107      -4.4850      2.00000
    108      -4.4845      2.00000
    109      -1.7138      0.00000
    110      -1.7125      0.00000
    111      -1.7044      0.00000
    112      -1.7029      0.00000
    113      -1.7009      0.00000
    114      -1.6997      0.00000
    115      -0.5518      0.00000
    116       0.1232      0.00000
    117       0.1331      0.00000
    118       0.1356      0.00000
    119       0.1426      0.00000
    120       0.1450      0.00000
    121       0.1469      0.00000
    122       0.1545      0.00000
    123       0.4408      0.00000
    124       0.7304      0.00000
    125       0.7399      0.00000
    126       0.8833      0.00000
    127       0.8939      0.00000
    128       0.9114      0.00000
    129       0.9403      0.00000
    130       0.9507      0.00000
    131       1.1233      0.00000
    132       1.5268      0.00000
    133       1.6472      0.00000
    134       1.7855      0.00000
    135       1.8633      0.00000
    136       1.8707      0.00000


--------------------------------------------------------------------------------------------------------


 soft charge-density along one line, spin component           1
         0         1         2         3         4         5         6         7         8         9
 total charge-density along one line
 
 pseudopotential strength for first ion, spin component:           1
 12.620  21.239  -0.000  -0.000   0.000  -0.000  -0.000   0.000
 21.239  35.743  -0.000  -0.000   0.000  -0.000   0.000   0.000
 -0.000  -0.000  -3.327  -0.000   0.000  -5.962  -0.000   0.000
 -0.000  -0.000  -0.000  -3.362  -0.000  -0.000  -6.024  -0.000
  0.000   0.000   0.000  -0.000  -3.327   0.000  -0.000  -5.962
 -0.000  -0.000  -5.962  -0.000   0.000 -10.663  -0.000   0.000
 -0.000   0.000  -0.000  -6.024  -0.000  -0.000 -10.773  -0.000
  0.000   0.000   0.000  -0.000  -5.962   0.000  -0.000 -10.663
 total augmentation occupancy for first ion, spin component:           1
  6.241  -2.004  -0.000  -0.002   0.000   0.000   0.001  -0.000
 -2.004   0.691   0.000   0.001  -0.000  -0.000  -0.000   0.000
 -0.000   0.000   5.992  -0.007   0.000  -1.878   0.003  -0.000
 -0.002   0.001  -0.007   2.310  -0.000   0.003  -0.483   0.000
  0.000  -0.000   0.000  -0.000   5.992  -0.000   0.000  -1.878
  0.000  -0.000  -1.878   0.003  -0.000   0.606  -0.001   0.000
  0.001  -0.000   0.003  -0.483   0.000  -0.001   0.111  -0.000
 -0.000   0.000  -0.000   0.000  -1.878   0.000  -0.000   0.606


------------------------ aborting loop because EDIFF is reached ----------------------------------------


    FORLOC:  cpu time    0.0680: real time    0.0685
    FORNL :  cpu time    1.7402: real time    1.7480
    FORCOR:  cpu time    4.5134: real time    4.5484
    OFIELD:  cpu time    0.0015: real time    0.0015

 VOLUME and BASIS-vectors are now :
 -----------------------------------------------------------------------------
  energy-cutoff  :     1000.00
  volume of cell :     3288.85
      direct lattice vectors                 reciprocal lattice vectors
    12.325000000  0.000000000  0.000000000     0.081135903  0.046843835  0.000000000
    -6.162500000 10.673763102  0.000000000     0.000000000  0.093687670  0.000000000
     0.000000000  0.000000000 25.000000000     0.000000000  0.000000000  0.040000000

  length of vectors
    12.325000000 12.325000000 25.000000000     0.093687670  0.093687670  0.040000000


 FORCES acting on ions:
    Electron-Ion                     Ewald-Force                    Non-Local-Force
 -----------------------------------------------------------------------------------------------
   0.103E+02 0.901E+01 0.256E+02   -.103E+02 -.901E+01 -.257E+02   0.144E-01 -.506E-02 0.121E-01
   0.167E+02 0.824E+01 0.329E+02   -.167E+02 -.822E+01 -.329E+02   0.196E-01 -.125E-01 -.566E-02
   0.812E+01 0.209E+02 0.402E+02   -.812E+01 -.209E+02 -.402E+02   -.222E-02 0.430E-01 0.344E-01
   0.126E+02 0.185E+02 0.621E+02   -.127E+02 -.185E+02 -.622E+02   0.476E-01 0.181E-01 0.722E-01
   0.112E+02 0.264E+01 0.258E+02   -.112E+02 -.263E+01 -.257E+02   0.459E-02 -.163E-01 -.392E-02
   0.117E+02 -.202E+01 0.263E+02   -.117E+02 0.203E+01 -.263E+02   -.182E-01 -.351E-02 -.135E-01
   0.219E+02 0.878E+01 0.539E+02   -.219E+02 -.872E+01 -.539E+02   0.509E-01 -.569E-01 -.282E-02
   0.215E+02 -.734E+01 0.570E+02   -.215E+02 0.737E+01 -.569E+02   0.101E-01 -.299E-01 -.783E-01
   -.908E+01 0.192E+02 0.410E+02   0.911E+01 -.192E+02 -.410E+02   -.210E-01 -.668E-02 -.291E-01
   -.162E+02 0.138E+02 0.602E+02   0.163E+02 -.139E+02 -.601E+02   -.692E-01 0.411E-01 -.514E-01
   0.276E+01 -.246E+01 0.211E+02   -.274E+01 0.245E+01 -.211E+02   -.475E-02 0.338E-02 -.565E-02
   0.221E+01 -.180E+01 0.197E+02   -.220E+01 0.180E+01 -.197E+02   -.152E-01 0.657E-02 0.174E-02
   0.835E+01 -.196E+02 0.645E+02   -.843E+01 0.196E+02 -.644E+02   0.830E-01 -.276E-01 -.619E-01
   0.394E+01 -.210E+02 0.410E+02   -.397E+01 0.210E+02 -.409E+02   0.258E-01 0.213E-02 -.329E-01
   -.997E+01 0.626E+01 0.252E+02   0.996E+01 -.626E+01 -.252E+02   0.139E-01 -.734E-02 -.562E-02
   -.147E+02 0.416E+01 0.291E+02   0.147E+02 -.417E+01 -.291E+02   -.211E-02 0.108E-01 -.227E-01
   -.151E+01 -.619E+00 0.190E+02   0.152E+01 0.616E+00 -.190E+02   -.636E-02 0.108E-02 0.918E-03
   0.825E+00 0.555E+01 0.202E+02   -.819E+00 -.555E+01 -.202E+02   -.881E-02 0.422E-02 0.888E-02
   -.301E+01 -.176E+02 0.316E+02   0.299E+01 0.176E+02 -.316E+02   0.264E-01 -.763E-02 0.921E-02
   -.131E+01 -.859E+01 0.222E+02   0.130E+01 0.860E+01 -.222E+02   0.625E-02 -.631E-02 -.194E-02
   0.172E+02 -.751E+01 0.355E+02   -.172E+02 0.751E+01 -.354E+02   -.563E-02 -.516E-02 -.449E-01
   0.103E+02 -.889E+01 0.281E+02   -.103E+02 0.888E+01 -.281E+02   -.122E-01 0.152E-01 -.159E-01
   -.412E+01 0.903E+01 0.779E+02   0.418E+01 -.907E+01 -.780E+02   -.567E-01 0.457E-01 0.636E-01
   -.697E+01 -.143E+02 0.740E+02   0.692E+01 0.144E+02 -.741E+02   0.407E-01 -.580E-01 0.599E-01
   0.483E+01 -.212E+01 0.212E+02   -.481E+01 0.211E+01 -.212E+02   -.926E-02 0.177E-02 -.101E-01
   0.909E+00 0.432E+01 0.214E+02   -.901E+00 -.433E+01 -.214E+02   -.130E-01 0.648E-02 -.850E-03
   -.220E+02 0.262E+01 0.451E+02   0.220E+02 -.265E+01 -.451E+02   -.443E-02 0.287E-01 -.302E-01
   -.202E+02 -.858E+01 0.409E+02   0.203E+02 0.855E+01 -.410E+02   -.375E-01 0.303E-01 0.159E-01
   0.628E+01 -.128E+02 0.294E+02   -.629E+01 0.128E+02 -.294E+02   0.116E-01 0.757E-02 -.201E-01
   0.584E+00 -.479E+01 0.226E+02   -.594E+00 0.478E+01 -.225E+02   0.180E-02 0.849E-02 -.948E-02
   -.163E+02 -.175E+02 0.502E+02   0.163E+02 0.176E+02 -.503E+02   -.408E-01 -.255E-01 0.521E-01
   -.941E+01 -.172E+02 0.337E+02   0.942E+01 0.172E+02 -.337E+02   -.268E-03 -.258E-01 0.226E-01
   0.571E+00 0.234E+01 0.196E+02   -.578E+00 -.233E+01 -.196E+02   0.120E-01 -.829E-02 0.390E-02
   0.161E+01 0.236E+01 0.210E+02   -.162E+01 -.235E+01 -.210E+02   0.699E-03 -.290E-02 -.625E-02
   -.696E+01 0.882E+00 0.229E+02   0.696E+01 -.890E+00 -.229E+02   0.944E-02 0.210E-02 -.196E-02
   -.600E+01 -.241E+01 0.223E+02   0.600E+01 0.240E+01 -.223E+02   -.114E-01 0.841E-02 -.249E-02
   -.122E+02 -.634E+01 0.262E+02   0.122E+02 0.634E+01 -.262E+02   -.159E-01 0.414E-02 0.181E-02
   -.707E+01 -.573E+01 0.220E+02   0.708E+01 0.573E+01 -.220E+02   -.113E-01 0.313E-02 0.104E-01
   -.663E+01 -.866E+01 0.235E+02   0.664E+01 0.867E+01 -.235E+02   -.114E-01 -.727E-02 0.787E-02
   -.978E+00 -.207E+01 0.201E+02   0.976E+00 0.207E+01 -.201E+02   0.259E-02 -.239E-02 0.834E-02
   0.249E+01 0.598E+01 0.210E+02   -.249E+01 -.599E+01 -.210E+02   -.446E-02 0.940E-02 0.804E-02
   0.824E+01 0.129E+02 0.272E+02   -.825E+01 -.129E+02 -.273E+02   0.111E-01 0.113E-01 0.161E-01
   0.662E+00 0.106E+02 0.233E+02   -.651E+00 -.106E+02 -.233E+02   -.865E-02 0.886E-02 -.109E-02
   0.723E-01 0.196E+02 0.346E+02   -.417E-01 -.196E+02 -.346E+02   -.336E-01 0.126E-01 0.123E-01
   -.201E+01 0.400E+01 0.225E+02   0.202E+01 -.399E+01 -.225E+02   0.911E-03 -.733E-02 -.673E-02
   -.845E+01 0.107E+02 0.279E+02   0.845E+01 -.107E+02 -.279E+02   -.101E-01 -.139E-02 -.173E-01
   -.147E+01 -.410E+01 0.209E+02   0.146E+01 0.410E+01 -.209E+02   0.145E-01 -.256E-02 0.123E-02
   -.380E+01 0.154E+01 0.200E+02   0.378E+01 -.153E+01 -.200E+02   0.757E-02 -.643E-03 -.871E-02
   0.304E+00 -.255E+01 0.198E+02   -.307E+00 0.255E+01 -.198E+02   0.829E-02 -.401E-02 0.591E-02
   0.402E+01 0.295E+01 0.200E+02   -.403E+01 -.294E+01 -.200E+02   0.661E-02 0.202E-02 0.328E-02
   0.127E+00 -.899E-01 -.402E+03   -.117E+00 0.838E-01 0.402E+03   -.105E-01 0.632E-02 -.180E-01
   -.229E+03 0.155E+03 -.617E+03   0.279E+03 -.190E+03 0.620E+03   -.512E+02 0.348E+02 -.335E+01
   0.229E+03 -.156E+03 -.594E+03   -.279E+03 0.190E+03 0.591E+03   0.512E+02 -.348E+02 0.318E+01
 -----------------------------------------------------------------------------------------------
   0.290E-01 -.437E-02 0.249E+00   0.114E-12 -.853E-13 0.568E-12   -.291E-01 0.444E-02 -.251E+00
 
 
 POSITION                                       TOTAL-FORCE (eV/Angst)
 -----------------------------------------------------------------------------------
     11.98348      0.00342      0.01417         0.001944     -0.000239     -0.000278
     -0.34154      1.42665      0.01100        -0.000531      0.001639      0.000519
      2.12355      0.00315      0.01249         0.000889     -0.003373      0.003364
      2.12326      1.42653      0.00641         0.000665      0.002925      0.004149
     10.75099      2.13819      0.01213         0.000731     -0.003991      0.002167
     -1.57382      3.56123      0.01110        -0.004865      0.006435      0.000568
      0.89078      2.13854      0.00548        -0.001561      0.000444      0.001925
      0.89099      3.56147      0.00181        -0.006179      0.005657     -0.002428
      4.58864      0.00346      0.01135         0.006516     -0.001105     -0.000202
      4.58894      1.42623      0.00646        -0.005125      0.003159     -0.003177
      9.51854      4.27281      0.01369         0.007375     -0.006330      0.000507
     -2.80632      5.69591      0.01434        -0.007718      0.004251      0.001300
      2.12300      4.27302      0.00000         0.000583      0.002662     -0.005153
      2.12335      5.69594      0.00581        -0.003760     -0.004740      0.000642
      7.05344      0.00333      0.01399         0.005835     -0.002685      0.002016
      7.05353      1.42635      0.01368        -0.004317      0.004628     -0.000268
      8.28610      6.40752      0.01601         0.003612     -0.002021     -0.000263
     -4.03885      7.83070      0.01636        -0.002435      0.002530      0.000331
      3.35586      6.40753      0.01007         0.001981      0.000575      0.001830
      3.35599      7.83072      0.01320        -0.003030      0.000305      0.000206
     -0.34146      4.27290      0.00723         0.008040     -0.006015     -0.000342
     -0.34138      5.69591      0.00946        -0.006689      0.002999      0.002514
      3.35624      2.13791      0.00222         0.005170     -0.000212     -0.000542
      3.35573      3.56155      0.00139        -0.002612     -0.001194      0.000583
     -1.57395      6.40758      0.01311         0.009173     -0.003939     -0.000534
     -1.57385      7.83068      0.01438        -0.004697      0.004227      0.000669
      5.82093      2.13784      0.01033         0.004481     -0.004952     -0.001319
      5.82114      3.56097      0.01156        -0.000945      0.000448      0.002932
      0.89092      6.40755      0.00907         0.003889     -0.000177      0.001806
      0.89106      7.83068      0.01235        -0.008236      0.000482      0.000568
      4.58871      4.27293      0.00850        -0.000577     -0.003957      0.003555
      4.58852      5.69606      0.01149         0.001424      0.006980      0.001177
      9.51845      0.00337      0.01490         0.005337     -0.005297      0.000676
      9.51855      1.42644      0.01438        -0.004488      0.008262     -0.000137
      8.28593      2.13803      0.01453         0.003518     -0.005090      0.001438
      8.28613      3.56115      0.01464        -0.004607      0.001514      0.000743
      7.05356      4.27269      0.01457         0.003795     -0.000572      0.001230
      7.05362      5.69588      0.01553        -0.002555      0.000603      0.000185
      5.82112      6.40755      0.01489        -0.000982      0.001733      0.000227
      5.82102      7.83073      0.01579         0.001209      0.001525      0.000006
      7.05363      8.54227      0.01631        -0.003004     -0.000709      0.001379
     -5.27149      9.96549      0.01495        -0.001910     -0.003078     -0.000874
     -2.80638      8.54234      0.01558         0.002836     -0.001652     -0.000028
     -2.80627      9.96553      0.01362        -0.002206      0.000231      0.001405
     -0.34149      8.54239      0.01378         0.005977     -0.001794      0.000841
     -0.34138      9.96550      0.01354        -0.006466      0.002506      0.001879
      2.12343      8.54232      0.01336         0.006146     -0.001483      0.001196
      2.12354      9.96544      0.01469        -0.007692      0.004287     -0.001798
      4.58846      8.54235      0.01505         0.004741     -0.003912      0.001290
      4.58853      9.96550      0.01517        -0.003295      0.003406      0.000859
      3.04930      2.68154      3.33710        -0.000693      0.000012     -0.015473
      4.02070      2.02068      3.40152        -0.444405      0.306448     -0.039972
      2.07767      3.34267      3.27764         0.449712     -0.312356      0.026108
 -----------------------------------------------------------------------------------
    total drift:                               -0.000080      0.000076     -0.002171


--------------------------------------------------------------------------------------------------------



  FREE ENERGIE OF THE ION-ELECTRON SYSTEM (eV)
  ---------------------------------------------------
  free  energy   TOTEN  =      -393.79246335 eV

  energy  without entropy=     -393.79246335  energy(sigma->0) =     -393.79246335
 


--------------------------------------------------------------------------------------------------------


    POTLOK:  cpu time    4.3199: real time    4.3503


--------------------------------------------------------------------------------------------------------


     LOOP+:  cpu time  297.0756: real time  300.1152
    4ORBIT:  cpu time    0.0000: real time    0.0000

 total amount of memory used by VASP MPI-rank0   100580. kBytes
=======================================================================

   base      :      30000. kBytes
   nonl-proj :       8229. kBytes
   fftplans  :      18352. kBytes
   grid      :      30208. kBytes
   one-center:          6. kBytes
   wavefun   :      13785. kBytes
 
  
  
 General timing and accounting informations for this job:
 ========================================================
  
                  Total CPU time used (sec):      343.345
                            User time (sec):      320.248
                          System time (sec):       23.096
                         Elapsed time (sec):      347.693
  
                   Maximum memory used (kb):      818808.
                   Average memory used (kb):          N/A
  
                          Minor page faults:       429810
                          Major page faults:           99
                 Voluntary context switches:         3876
