 vasp.6.2.1 16May21 (build Nov 06 2021 14:46:37) complex                        
  
 executed on             LinuxIFC date 2025.03.03  19:08:16
 running on  112 total cores
 distrk:  each k-point on  112 cores,    1 groups
 distr:  one band on NCORE=  28 cores,    4 groups


--------------------------------------------------------------------------------------------------------


 INCAR:
   NPAR = 4
   ALGO = Conjugate
   ISMEAR = 0
   SIGMA = 0.01
   PREC = Accurate
   EDIFF = 1E-7
   ENCUT = 1000
   ISIF = 0
   GGA = ML
   LUSE_VDW = .TRUE.
   ZAB_VDW = -1.8867
   AGGAC = 0.0000
   LASPH = .TRUE.
   SYMPREC = 1E-7
   LWAVE = .FALSE.
   LCHARGE = .FALSE.

 POTCAR:    PAW_PBE C_h 06Feb2004                 
 POTCAR:    PAW_PBE O_h 06Feb2004                 
 -----------------------------------------------------------------------------
|                                                                             |
|           W    W    AA    RRRRR   N    N  II  N    N   GGGG   !!!           |
|           W    W   A  A   R    R  NN   N  II  NN   N  G    G  !!!           |
|           W    W  A    A  R    R  N N  N  II  N N  N  G       !!!           |
|           W WW W  AAAAAA  RRRRR   N  N N  II  N  N N  G  GGG   !            |
|           WW  WW  A    A  R   R   N   NN  II  N   NN  G    G                |
|           W    W  A    A  R    R  N    N  II  N    N   GGGG   !!!           |
|                                                                             |
|     For optimal performance we recommend to set                             |
|       NCORE = 2 up to number-of-cores-per-socket                            |
|     NCORE specifies how many cores store one orbital (NPAR=cpu/NCORE).      |
|     This setting can greatly improve the performance of VASP for DFT.       |
|     The default, NCORE=1 might be grossly inefficient on modern             |
|     multi-core architectures or massively parallel machines. Do your        |
|     own testing! More info at https://www.vasp.at/wiki/index.php/NCORE      |
|     Unfortunately you need to use the default for GW and RPA                |
|     calculations (for HF NCORE is supported but not extensively tested      |
|     yet).                                                                   |
|                                                                             |
 -----------------------------------------------------------------------------

 -----------------------------------------------------------------------------
|                                                                             |
|               ----> ADVICE to this user running VASP <----                  |
|                                                                             |
|     You have switched on vdW-DFT.                                           |
|     This routine was written and supplied by Jiri Klimes. We recommend      |
|     that you carefully read and cite the following publications:            |
|       J. Klimes, D.R. Bowler, A. Michelides                                 |
|          J. Phys.: Cond Matt. 22 022201 (2010)                              |
|       J. Klimes, D.R. Bowler, A. Michelides                                 |
|          Phys. Rev. B. 83, 195131 (2011)                                    |
|     and references therein.                                                 |
|                                                                             |
 -----------------------------------------------------------------------------

 POTCAR:    PAW_PBE C_h 06Feb2004                 
   VRHFIN =C: s2p2                                                                                  
   LEXCH  = PE                                                                                      
   EATOM  =   147.1560 eV,   10.8157 Ry                                                             
                                                                                                    
   TITEL  = PAW_PBE C_h 06Feb2004                                                                   
   LULTRA =        F    use ultrasoft PP ?                                                          
   IUNSCR =        1    unscreen: 0-lin 1-nonlin 2-no                                               
   RPACOR =    0.800    partial core radius                                                         
   POMASS =   12.011; ZVAL   =    4.000    mass and valenz                                          
   RCORE  =    1.100    outmost cutoff radius                                                       
   RWIGS  =    1.630; RWIGS  =    0.863    wigner-seitz radius (au A)                               
   ENMAX  =  700.000; ENMIN  =  500.000 eV                                                          
   ICORE  =        2    local potential                                                             
   LCOR   =        T    correct aug charges                                                         
   LPAW   =        T    paw PP                                                                      
   EAUG   =  946.768                                                                                
   DEXC   =    0.000                                                                                
   RMAX   =    1.128    core radius for proj-oper                                                   
   RAUG   =    1.300    factor for augmentation sphere                                              
   RDEP   =    1.162    radius for radial grids                                                     
   RDEPT  =    1.088    core radius for aug-charge                                                  
                                                                                                    
   Atomic configuration                                                                             
    4 entries                                                                                       
     n  l   j            E        occ.                                                              
     1  0  0.50      -273.3789   2.0000                                                             
     2  0  0.50       -13.7508   2.0000                                                             
     2  1  0.50        -5.2854   2.0000                                                             
     3  2  1.50        -5.4423   0.0000                                                             
   Description                                                                                      
     l       E           TYP  RCUT    TYP  RCUT                                                     
     0    -13.7508458     23  1.100                                                                 
     0     -8.2022199     23  1.100                                                                 
     1     -5.2854383     23  1.100                                                                 
     1      1.1560700     23  1.100                                                                 
     2     -5.4423304      7  1.100                                                                 
  local pseudopotential read in
  partial core-charges read in
  partial kinetic energy density read in
  atomic valenz-charges read in
  non local Contribution for L=           0  read in
    real space projection operators read in
  non local Contribution for L=           0  read in
    real space projection operators read in
  non local Contribution for L=           1  read in
    real space projection operators read in
  non local Contribution for L=           1  read in
    real space projection operators read in
    PAW grid and wavefunctions read in
 
   number of l-projection  operators is LMAX  =           4
   number of lm-projection operators is LMMAX =           8
 
 POTCAR:    PAW_PBE O_h 06Feb2004                 
   VRHFIN =O: s2p4                                                                                  
   LEXCH  = PE                                                                                      
   EATOM  =   432.3788 eV,   31.7789 Ry                                                             
                                                                                                    
   TITEL  = PAW_PBE O_h 06Feb2004                                                                   
   LULTRA =        F    use ultrasoft PP ?                                                          
   IUNSCR =        1    unscreen: 0-lin 1-nonlin 2-no                                               
   RPACOR =    0.800    partial core radius                                                         
   POMASS =   16.000; ZVAL   =    6.000    mass and valenz                                          
   RCORE  =    1.100    outmost cutoff radius                                                       
   RWIGS  =    1.400; RWIGS  =    0.741    wigner-seitz radius (au A)                               
   ENMAX  =  700.000; ENMIN  =  500.000 eV                                                          
   ICORE  =        2    local potential                                                             
   LCOR   =        T    correct aug charges                                                         
   LPAW   =        T    paw PP                                                                      
   EAUG   =  888.804                                                                                
   DEXC   =    0.000                                                                                
   RMAX   =    1.128    core radius for proj-oper                                                   
   RAUG   =    1.300    factor for augmentation sphere                                              
   RDEP   =    1.125    radius for radial grids                                                     
   RDEPT  =    1.088    core radius for aug-charge                                                  
                                                                                                    
   Atomic configuration                                                                             
    4 entries                                                                                       
     n  l   j            E        occ.                                                              
     1  0  0.50      -514.6923   2.0000                                                             
     2  0  0.50       -23.9615   2.0000                                                             
     2  1  0.50        -9.0305   4.0000                                                             
     3  2  1.50        -9.5241   0.0000                                                             
   Description                                                                                      
     l       E           TYP  RCUT    TYP  RCUT                                                     
     0    -23.9615319     23  1.100                                                                 
     0    -25.3221145     23  1.100                                                                 
     1     -9.0304911     23  1.100                                                                 
     1     -5.4802209     23  1.100                                                                 
     2     -9.5240782      7  1.100                                                                 
  local pseudopotential read in
  partial core-charges read in
  partial kinetic energy density read in
  atomic valenz-charges read in
  non local Contribution for L=           0  read in
    real space projection operators read in
  non local Contribution for L=           0  read in
    real space projection operators read in
  non local Contribution for L=           1  read in
    real space projection operators read in
  non local Contribution for L=           1  read in
    real space projection operators read in
    PAW grid and wavefunctions read in
 
   number of l-projection  operators is LMAX  =           4
   number of lm-projection operators is LMMAX =           8
 
 -----------------------------------------------------------------------------
|                                                                             |
|               ----> ADVICE to this user running VASP <----                  |
|                                                                             |
|     You have a (more or less) 'large supercell' and for larger cells it     |
|     might be more efficient to use real-space projection operators.         |
|     Therefore, try LREAL= Auto in the INCAR file.                           |
|     Mind: For very accurate calculation, you might also keep the            |
|     reciprocal projection scheme (i.e. LREAL=.FALSE.).                      |
|                                                                             |
 -----------------------------------------------------------------------------

 -----------------------------------------------------------------------------
|                                                                             |
|               ----> ADVICE to this user running VASP <----                  |
|                                                                             |
|     You enforced a specific xc type in the INCAR file but a different       |
|     type was found in the POTCAR file.                                      |
|     I HOPE YOU KNOW WHAT YOU ARE DOING!                                     |
|                                                                             |
 -----------------------------------------------------------------------------

  PAW_PBE C_h 06Feb2004                 :
 energy of atom  1       EATOM= -147.1560
 kinetic energy error for atom=    0.0031 (will be added to EATOM!!)
  PAW_PBE O_h 06Feb2004                 :
 energy of atom  2       EATOM= -432.3788
 kinetic energy error for atom=    0.0171 (will be added to EATOM!!)
 
 
 POSCAR:  C  O
  positions in cartesian coordinates
  No initial velocities read in
 exchange correlation table for  LEXCH =       44
   RHO(1)=    0.500       N(1)  =     2000
   RHO(2)=  100.500       N(2)  =     4000
 


--------------------------------------------------------------------------------------------------------


 ion  position               nearest neighbor table
   1  0.972  0.000  0.001-  50 1.42   2 1.42  42 1.42
   2  0.039  0.134  0.001-   5 1.42   7 1.42   1 1.42
   3  0.172  0.000  0.001-  42 1.42  44 1.42   4 1.42
   4  0.239  0.134  0.000-   7 1.42   3 1.42  23 1.42
   5  0.972  0.200  0.001-   6 1.42   2 1.42  34 1.42
   6  0.039  0.334  0.001-   5 1.42  21 1.42  11 1.42
   7  0.172  0.200  0.000-   8 1.42   2 1.42   4 1.42
   8  0.239  0.334  0.000-  13 1.42   7 1.42  21 1.42
   9  0.372  0.000  0.001-  10 1.42  44 1.42  46 1.42
  10  0.439  0.134  0.000-  27 1.42   9 1.42  23 1.42
  11  0.972  0.400  0.001-  12 1.42  36 1.42   6 1.42
  12  0.039  0.534  0.001-  25 1.42  11 1.42  17 1.42
  13  0.372  0.400  0.000-   8 1.42  14 1.42  24 1.42
  14  0.439  0.534  0.000-  13 1.42  29 1.42  19 1.42
  15  0.572  0.000  0.001-  46 1.42  16 1.42  48 1.42
  16  0.639  0.134  0.001-  15 1.42  35 1.42  27 1.42
  17  0.972  0.600  0.001-  38 1.42  18 1.42  12 1.42
  18  0.039  0.734  0.001-  43 1.42  41 1.42  17 1.42
  19  0.572  0.600  0.001-  14 1.42  20 1.42  32 1.42
  20  0.639  0.734  0.001-  49 1.42  19 1.42  47 1.42
  21  0.172  0.400  0.000-  22 1.42   8 1.42   6 1.42
  22  0.239  0.534  0.000-  21 1.42  29 1.42  25 1.42
  23  0.372  0.200  0.000-  10 1.42   4 1.42  24 1.42
  24  0.439  0.334  0.000-  13 1.42  31 1.42  23 1.42
  25  0.172  0.600  0.001-  26 1.42  12 1.42  22 1.42
  26  0.239  0.734  0.001-  25 1.42  45 1.42  43 1.42
  27  0.572  0.200  0.001-  10 1.42  28 1.42  16 1.42
  28  0.639  0.334  0.001-  27 1.42  37 1.42  31 1.42
  29  0.372  0.600  0.000-  22 1.42  14 1.42  30 1.42
  30  0.439  0.734  0.001-  47 1.42  29 1.42  45 1.42
  31  0.572  0.400  0.000-  32 1.42  28 1.42  24 1.42
  32  0.639  0.534  0.001-  31 1.42  39 1.42  19 1.42
  33  0.772  0.000  0.001-  34 1.42  48 1.42  50 1.42
  34  0.839  0.134  0.001-  33 1.42   5 1.42  35 1.42
  35  0.772  0.200  0.001-  36 1.42  16 1.42  34 1.42
  36  0.839  0.334  0.001-  35 1.42  11 1.42  37 1.42
  37  0.772  0.400  0.001-  28 1.42  38 1.42  36 1.42
  38  0.839  0.534  0.001-  17 1.42  37 1.42  39 1.42
  39  0.772  0.600  0.001-  40 1.42  38 1.42  32 1.42
  40  0.839  0.734  0.001-  39 1.42  49 1.42  41 1.42
  41  0.972  0.800  0.001-  18 1.42  42 1.42  40 1.42
  42  0.039  0.934  0.001-   3 1.42  41 1.42   1 1.42
  43  0.172  0.800  0.001-  18 1.42  44 1.42  26 1.42
  44  0.239  0.934  0.001-   9 1.42  43 1.42   3 1.42
  45  0.372  0.800  0.001-  26 1.42  46 1.42  30 1.42
  46  0.439  0.934  0.001-  15 1.42  45 1.42   9 1.42
  47  0.572  0.800  0.001-  30 1.42  48 1.42  20 1.42
  48  0.639  0.934  0.001-  47 1.42  33 1.42  15 1.42
  49  0.772  0.800  0.001-  50 1.42  20 1.42  40 1.42
  50  0.839  0.934  0.001-  49 1.42   1 1.42  33 1.42
  51  0.373  0.251  0.375-  52 1.18  53 1.18
  52  0.421  0.189  0.378-  51 1.18
  53  0.325  0.313  0.372-  51 1.18
 
  LATTYP: Found a hexagonal cell.
 ALAT       =    12.3250000000
 C/A-ratio  =     1.6227180527
  
  Lattice vectors:
  
 A1 = (  12.3250000000,   0.0000000000,   0.0000000000)
 A2 = (  -6.1625000000,  10.6737631016,   0.0000000000)
 A3 = (   0.0000000000,   0.0000000000,  20.0000000000)


Analysis of symmetry for initial positions (statically):
=====================================================================
 Subroutine PRICEL returns:
 Original cell was already a primitive cell.
 

 Routine SETGRP: Setting up the symmetry group for a 
 hexagonal supercell.


 Subroutine GETGRP returns: Found  1 space group operations
 (whereof  1 operations were pure point group operations)
 out of a pool of 24 trial point group operations.


The static configuration has the point symmetry C_1 .


Analysis of symmetry for dynamics (positions and initial velocities):
=====================================================================
 Subroutine PRICEL returns:
 Original cell was already a primitive cell.
 

 Routine SETGRP: Setting up the symmetry group for a 
 hexagonal supercell.


 Subroutine GETGRP returns: Found  1 space group operations
 (whereof  1 operations were pure point group operations)
 out of a pool of 24 trial point group operations.


The dynamic configuration has the point symmetry C_1 .


 Subroutine INISYM returns: Found  1 space group operations
 (whereof  1 operations are pure point group operations),
 and found     1 'primitive' translations


----------------------------------------------------------------------------------------

                                     Primitive cell                                     

  volume of cell :    2631.0826

  direct lattice vectors                    reciprocal lattice vectors
    12.325000000  0.000000000  0.000000000     0.081135903  0.046843835  0.000000000
    -6.162500000 10.673763102  0.000000000     0.000000000  0.093687670  0.000000000
     0.000000000  0.000000000 20.000000000     0.000000000  0.000000000  0.050000000

  length of vectors
    12.325000000 12.325000000 20.000000000     0.093687670  0.093687670  0.050000000

  position of ions in fractional coordinates (direct lattice)
     0.972450841  0.000320818  0.000708389
     0.039118382  0.133659505  0.000550216
     0.172443627  0.000295449  0.000624535
     0.239096278  0.133647917  0.000320585
     0.972452058  0.200322012  0.000606523
     0.039128360  0.333643771  0.000555187
     0.172451764  0.200354552  0.000273959
     0.239124359  0.333665720  0.000090325
     0.372465565  0.000324403  0.000567391
     0.439137473  0.133619939  0.000322923
     0.972449824  0.400309362  0.000684513
     0.039124981  0.533636789  0.000716763
     0.372416176  0.400329481  0.000000000
     0.439099602  0.533638981  0.000290518
     0.572443676  0.000312125  0.000699475
     0.639110207  0.133631751  0.000684093
     0.972452703  0.600305653  0.000800361
     0.039124495  0.733640359  0.000818141
     0.572433471  0.600306242  0.000503618
     0.639111888  0.733641879  0.000659881
     0.172454630  0.400318228  0.000361306
     0.239120185  0.533636548  0.000473136
     0.372459750  0.200295993  0.000111246
     0.439107096  0.333673419  0.000069702
     0.172452155  0.600311506  0.000655425
     0.239123371  0.733638574  0.000718912
     0.572431082  0.200289171  0.000516621
     0.639112773  0.333618630  0.000577970
     0.372439808  0.600308022  0.000453556
     0.439116090  0.733637858  0.000617737
     0.572469358  0.400320504  0.000424897
     0.639119408  0.533650873  0.000574513
     0.772445723  0.000315427  0.000745201
     0.839116277  0.133640203  0.000719132
     0.772440513  0.200307432  0.000726291
     0.839120241  0.333635728  0.000731834
     0.772446320  0.400298367  0.000728722
     0.839118980  0.533633964  0.000776376
     0.772456143  0.600308173  0.000744639
     0.839115033  0.733643180  0.000789390
     0.972455313  0.800305582  0.000815291
     0.039114714  0.933643289  0.000747563
     0.172457971  0.800312211  0.000779216
     0.239134551  0.933647193  0.000681063
     0.372451396  0.800316674  0.000689249
     0.439124489  0.933644769  0.000676788
     0.572441101  0.800310054  0.000668168
     0.639115067  0.933638985  0.000734556
     0.772445098  0.800313187  0.000752577
     0.839116614  0.933644338  0.000758538
     0.373021009  0.251226878  0.374576769
     0.420879805  0.189313152  0.377797862
     0.325156981  0.313167186  0.371604025

  ion indices of the primitive-cell ions
   primitive index   ion index
                 1           1
                 2           2
                 3           3
                 4           4
                 5           5
                 6           6
                 7           7
                 8           8
                 9           9
                10          10
                11          11
                12          12
                13          13
                14          14
                15          15
                16          16
                17          17
                18          18
                19          19
                20          20
                21          21
                22          22
                23          23
                24          24
                25          25
                26          26
                27          27
                28          28
                29          29
                30          30
                31          31
                32          32
                33          33
                34          34
                35          35
                36          36
                37          37
                38          38
                39          39
                40          40
                41          41
                42          42
                43          43
                44          44
                45          45
                46          46
                47          47
                48          48
                49          49
                50          50
                51          51
                52          52
                53          53

----------------------------------------------------------------------------------------

 
 
 KPOINTS: auto                                    

Automatic generation of k-mesh.
 Grid dimensions read from file:
 generate k-points for:    1    1    1

 Generating k-lattice:

  Cartesian coordinates                     Fractional coordinates (reciprocal lattice)
     0.081135903  0.046843835  0.000000000     1.000000000 -0.000000000  0.000000000
     0.000000000  0.093687670  0.000000000     0.000000000  1.000000000  0.000000000
     0.000000000  0.000000000  0.050000000     0.000000000  0.000000000  1.000000000

  Length of vectors
     0.093687670  0.093687670  0.050000000

  Shift w.r.t. Gamma in fractional coordinates (k-lattice)
     0.000000000  0.000000000  0.000000000

 
 Subroutine IBZKPT returns following result:
 ===========================================
 
 Found      1 irreducible k-points:
 
 Following reciprocal coordinates:
            Coordinates               Weight
  0.000000  0.000000  0.000000      1.000000
 
 Following cartesian coordinates:
            Coordinates               Weight
  0.000000  0.000000  0.000000      1.000000
 


--------------------------------------------------------------------------------------------------------




 Dimension of arrays:
   k-points           NKPTS =      1   k-points in BZ     NKDIM =      1   number of bands    NBANDS=    136
   number of dos      NEDOS =    301   number of ions     NIONS =     53
   non local maximal  LDIM  =      4   non local SUM 2l+1 LMDIM =      8
   total plane-waves  NPLWV = ******
   max r-space proj   IRMAX =      1   max aug-charges    IRDMAX=   9736
   dimension x,y,z NGX =   128 NGY =  128 NGZ =  210
   dimension x,y,z NGXF=   256 NGYF=  256 NGZF=  420
   support grid    NGXF=   256 NGYF=  256 NGZF=  420
   ions per type =              51   2
   NGX,Y,Z   is equivalent  to a cutoff of  17.27, 17.27, 17.46 a.u.
   NGXF,Y,Z  is equivalent  to a cutoff of  34.53, 34.53, 34.91 a.u.

 SYSTEM =  unknown system                          
 POSCAR =   C  O                                   

 Startparameter for this run:
   NWRITE =      2    write-flag & timer
   PREC   = accura    normal or accurate (medium, high low for compatibility)
   ISTART =      0    job   : 0-new  1-cont  2-samecut
   ICHARG =      2    charge: 1-file 2-atom 10-const
   ISPIN  =      1    spin polarized calculation?
   LNONCOLLINEAR =      F non collinear calculations
   LSORBIT =      F    spin-orbit coupling
   INIWAV =      1    electr: 0-lowe 1-rand  2-diag
   LASPH  =      T    aspherical Exc in radial PAW
 Electronic Relaxation 1
   ENCUT  = 1000.0 eV  73.50 Ry    8.57 a.u.  31.78 31.78 51.57*2*pi/ulx,y,z
   ENINI  = 1000.0     initial cutoff
   ENAUG  =  946.8 eV  augmentation charge cutoff
   NELM   =     60;   NELMIN=  2; NELMDL= -5     # of ELM steps 
   EDIFF  = 0.1E-06   stopping-criterion for ELM
   LREAL  =      F    real-space projection
   NLSPLINE    = F    spline interpolate recip. space projectors
   LCOMPAT=      F    compatible to vasp.4.4
   GGA_COMPAT  = T    GGA compatible to vasp.4.4-vasp.4.6
   LMAXPAW     = -100 max onsite density
   LMAXMIX     =    2 max onsite mixed and CHGCAR
   VOSKOWN=      0    Vosko Wilk Nusair interpolation
   ROPT   =    0.00000   0.00000
 Ionic relaxation
   EDIFFG = 0.1E-05   stopping-criterion for IOM
   NSW    =      0    number of steps for IOM
   NBLOCK =      1;   KBLOCK =      1    inner block; outer block 
   IBRION =     -1    ionic relax: 0-MD 1-quasi-New 2-CG
   NFREE  =      0    steps in history (QN), initial steepest desc. (CG)
   ISIF   =      0    stress and relaxation
   IWAVPR =     10    prediction:  0-non 1-charg 2-wave 3-comb
   ISYM   =      2    0-nonsym 1-usesym 2-fastsym
   LCORR  =      T    Harris-Foulkes like correction to forces

   POTIM  = 0.5000    time-step for ionic-motion
   TEIN   =    0.0    initial temperature
   TEBEG  =    0.0;   TEEND  =   0.0 temperature during run
   SMASS  =  -3.00    Nose mass-parameter (am)
   estimated Nose-frequenzy (Omega)   =  0.10E-29 period in steps = 0.13E+47 mass=  -0.347E-26a.u.
   SCALEE = 1.0000    scale energy and forces
   NPACO  =    256;   APACO  = 16.0  distance and # of slots for P.C.
   PSTRESS=    0.0 pullay stress

  Mass of Ions in am
   POMASS =  12.01 16.00
  Ionic Valenz
   ZVAL   =   4.00  6.00
  Atomic Wigner-Seitz radii
   RWIGS  =  -1.00 -1.00
  virtual crystal weights 
   VCA    =   1.00  1.00
   NELECT =     216.0000    total number of electrons
   NUPDOWN=      -1.0000    fix difference up-down

 DOS related values:
   EMIN   =  10.00;   EMAX   =-10.00  energy-range for DOS
   EFERMI =   0.00
   ISMEAR =     0;   SIGMA  =   0.01  broadening in eV -4-tet -1-fermi 0-gaus

 Electronic relaxation 2 (details)
   IALGO  =     58    algorithm
   LDIAG  =      T    sub-space diagonalisation (order eigenvalues)
   LSUBROT=      F    optimize rotation matrix (better conditioning)
   TURBO    =      0    0=normal 1=particle mesh
   IRESTART =      0    0=no restart 2=restart with 2 vectors
   NREBOOT  =      0    no. of reboots
   NMIN     =      0    reboot dimension
   EREF     =   0.00    reference energy to select bands
   IMIX   =      4    mixing-type and parameters
     AMIX     =   0.40;   BMIX     =  1.00
     AMIX_MAG =   1.60;   BMIX_MAG =  1.00
     AMIN     =   0.10
     WC   =   100.;   INIMIX=   1;  MIXPRE=   1;  MAXMIX= -45

 Intra band minimization:
   WEIMIN = 0.0000     energy-eigenvalue tresh-hold
   EBREAK =  0.18E-09  absolut break condition
   DEPER  =   0.30     relativ break condition  

   TIME   =   0.40     timestep for ELM

  volume/ion in A,a.u.               =      49.64       335.01
  Fermi-wavevector in a.u.,A,eV,Ry     =   0.711510  1.344560  6.887909  0.506247
  Thomas-Fermi vector in A             =   1.798641
 
 Write flags
   LWAVE        =      F    write WAVECAR
   LDOWNSAMPLE  =      F    k-point downsampling of WAVECAR
   LCHARG       =      T    write CHGCAR
   LVTOT        =      F    write LOCPOT, total local potential
   LVHAR        =      F    write LOCPOT, Hartree potential only
   LELF         =      F    write electronic localiz. function (ELF)
   LORBIT       =      0    0 simple, 1 ext, 2 COOP (PROOUT), +10 PAW based schemes


 Dipole corrections
   LMONO  =      F    monopole corrections only (constant potential shift)
   LDIPOL =      F    correct potential (dipole corrections)
   IDIPOL =      0    1-x, 2-y, 3-z, 4-all directions 
   EPSILON=  1.0000000 bulk dielectric constant

 Exchange correlation treatment:
   GGA     =    ML    GGA type
   LEXCH   =    44    internal setting for exchange type
   VOSKOWN=      0    Vosko Wilk Nusair interpolation
   LHFCALC =     F    Hartree Fock is set to
   LHFONE  =     F    Hartree Fock one center treatment
   AEXX    =    0.0000 exact exchange contribution

 vdW DFT:
   LUSE_VDW   =     T    switch on vdW DFT
   Zab_VDW    =******    correlation parameter
   PARAM1     =0.1234
   PARAM2     =1.0000
   PARAM3     =0.0000
   -- rVV10 --
   BPARAM     = 6.3000
   CPARAM     = 0.0093

 Linear response parameters
   LEPSILON=     F    determine dielectric tensor
   LRPA    =     F    only Hartree local field effects (RPA)
   LNABLA  =     F    use nabla operator in PAW spheres
   LVEL    =     F    velocity operator in full k-point grid
   LINTERFAST=   F  fast interpolation
   KINTER  =     0    interpolate to denser k-point grid
   CSHIFT  =0.1000    complex shift for real part using Kramers Kronig
   OMEGAMAX=  -1.0    maximum frequency
   DEG_THRESHOLD= 0.2000000E-02 threshold for treating states as degnerate
   RTIME   =   -0.100 relaxation time in fs
  (WPLASMAI=    0.000 imaginary part of plasma frequency in eV, 0.658/RTIME)
   DFIELD  = 0.0000000 0.0000000 0.0000000 field for delta impulse in time
 
 Orbital magnetization related:
   ORBITALMAG=     F  switch on orbital magnetization
   LCHIMAG   =     F  perturbation theory with respect to B field
   DQ        =  0.001000  dq finite difference perturbation B field
   LLRAUG    =     F  two centre corrections for induced B field



--------------------------------------------------------------------------------------------------------


 Static calculation
 charge density and potential will be updated during run
 non-spin polarized calculation
 Conjugate gradient for all bands (Freysoldt, et al. PRB 79, 241103 (2009))
 preconditioned conjugated gradient                                        
 perform sub-space diagonalisation
    before iterative eigenvector-optimisation
 modified Broyden-mixing scheme, WC =      100.0
 initial mixing is a Kerker type mixing with AMIX =  0.4000 and BMIX =      1.0000
 Hartree-type preconditioning will be used
 using additional bands           28
 reciprocal scheme for non local part
 use partial core corrections
 no Harris-corrections to forces 
 use gradient corrections 
 use of overlap-Matrix (Vanderbilt PP)
 Gauss-broadening in eV      SIGMA  =   0.01


--------------------------------------------------------------------------------------------------------


  energy-cutoff  :     1000.00
  volume of cell :     2631.08
      direct lattice vectors                 reciprocal lattice vectors
    12.325000000  0.000000000  0.000000000     0.081135903  0.046843835  0.000000000
    -6.162500000 10.673763102  0.000000000     0.000000000  0.093687670  0.000000000
     0.000000000  0.000000000 20.000000000     0.000000000  0.000000000  0.050000000

  length of vectors
    12.325000000 12.325000000 20.000000000     0.093687670  0.093687670  0.050000000


 
 k-points in units of 2pi/SCALE and weight: auto                                    
   0.00000000  0.00000000  0.00000000       1.000
 
 k-points in reciprocal lattice and weights: auto                                    
   0.00000000  0.00000000  0.00000000       1.000
 
 position of ions in fractional coordinates (direct lattice) 
   0.97245084  0.00032082  0.00070839
   0.03911838  0.13365950  0.00055022
   0.17244363  0.00029545  0.00062454
   0.23909628  0.13364792  0.00032058
   0.97245206  0.20032201  0.00060652
   0.03912836  0.33364377  0.00055519
   0.17245176  0.20035455  0.00027396
   0.23912436  0.33366572  0.00009033
   0.37246557  0.00032440  0.00056739
   0.43913747  0.13361994  0.00032292
   0.97244982  0.40030936  0.00068451
   0.03912498  0.53363679  0.00071676
   0.37241618  0.40032948  0.00000000
   0.43909960  0.53363898  0.00029052
   0.57244368  0.00031213  0.00069947
   0.63911021  0.13363175  0.00068409
   0.97245270  0.60030565  0.00080036
   0.03912449  0.73364036  0.00081814
   0.57243347  0.60030624  0.00050362
   0.63911189  0.73364188  0.00065988
   0.17245463  0.40031823  0.00036131
   0.23912018  0.53363655  0.00047314
   0.37245975  0.20029599  0.00011125
   0.43910710  0.33367342  0.00006970
   0.17245216  0.60031151  0.00065542
   0.23912337  0.73363857  0.00071891
   0.57243108  0.20028917  0.00051662
   0.63911277  0.33361863  0.00057797
   0.37243981  0.60030802  0.00045356
   0.43911609  0.73363786  0.00061774
   0.57246936  0.40032050  0.00042490
   0.63911941  0.53365087  0.00057451
   0.77244572  0.00031543  0.00074520
   0.83911628  0.13364020  0.00071913
   0.77244051  0.20030743  0.00072629
   0.83912024  0.33363573  0.00073183
   0.77244632  0.40029837  0.00072872
   0.83911898  0.53363396  0.00077638
   0.77245614  0.60030817  0.00074464
   0.83911503  0.73364318  0.00078939
   0.97245531  0.80030558  0.00081529
   0.03911471  0.93364329  0.00074756
   0.17245797  0.80031221  0.00077922
   0.23913455  0.93364719  0.00068106
   0.37245140  0.80031667  0.00068925
   0.43912449  0.93364477  0.00067679
   0.57244110  0.80031005  0.00066817
   0.63911507  0.93363899  0.00073456
   0.77244510  0.80031319  0.00075258
   0.83911661  0.93364434  0.00075854
   0.37302101  0.25122688  0.37457677
   0.42087980  0.18931315  0.37779786
   0.32515698  0.31316719  0.37160403
 
 position of ions in cartesian coordinates  (Angst):
  11.98347958  0.00342433  0.01416777
  -0.34154264  1.42664989  0.01100432
   2.12354700  0.00315355  0.01249070
   2.12325634  1.42652621  0.00641170
  10.75098721  2.13818970  0.01213047
  -1.57382270  3.56123457  0.01110375
   0.89078307  2.13853702  0.00547917
   0.89099273  3.56146885  0.00180651
   4.58863896  0.00346260  0.01134782
   4.58893648  1.42622757  0.00645846
   9.51853763  4.27280730  0.01369027
  -2.80632132  5.69591267  0.01433526
   2.12299894  4.27302204  0.00000000
   2.12335237  5.69593607  0.00581036
   7.05344483  0.00333155  0.01398950
   7.05352764  1.42635365  0.01368187
   8.28609598  6.40752033  0.01600723
  -4.03884931  7.83070339  0.01636283
   3.35585531  6.40752662  0.01007237
   3.35598594  7.83071962  0.01319763
  -0.34145776  4.27290193  0.00722612
  -0.34137895  5.69591010  0.00946273
   3.35624236  2.13791198  0.00222492
   3.35573251  3.56155103  0.00139405
  -1.57394684  6.40758280  0.01310850
  -1.57385216  7.83068434  0.01437823
   5.82093107  2.13783916  0.01033241
   5.82114012  3.56096622  0.01155939
   0.89092245  6.40754561  0.00907111
   0.89106251  7.83067670  0.01235474
   4.58870974  4.27292622  0.00849795
   4.58852320  5.69606300  0.01149026
   9.51844972  0.00336679  0.01490402
   9.51855036  1.42644387  0.01438264
   8.28593477  2.13803408  0.01452582
   8.28612680  3.56114872  0.01463668
   7.05356221  4.27268994  0.01457444
   7.05362213  5.69588251  0.01552751
   5.82112285  6.40754723  0.01489279
   5.82101669  7.83073350  0.01578780
   7.05362858  8.54227219  0.01630582
  -5.27148792  9.96548729  0.01495127
  -2.80637951  8.54234295  0.01558431
  -2.80626749  9.96552896  0.01362126
  -0.34148805  8.54239058  0.01378498
  -0.34137657  9.96550309  0.01353576
   2.12342586  8.54231992  0.01336337
   2.12354296  9.96544135  0.01469111
   4.58845581  8.54235337  0.01505154
   4.58852904  9.96549848  0.01517076
   3.04929830  2.68153618  7.49153538
   4.02070129  2.02068374  7.55595724
   2.07766701  3.34267235  7.43208051
 


--------------------------------------------------------------------------------------------------------


 k-point   1 :   0.0000 0.0000 0.0000  plane waves:  189031

 maximum and minimum number of plane-waves per node :      6755     6748

 maximum number of plane-waves:    189031
 maximum index in each direction: 
   IXMAX=   31   IYMAX=   31   IZMAX=   51
   IXMIN=  -31   IYMIN=  -31   IZMIN=  -51


 parallel 3D FFT for wavefunctions:
    minimum data exchange during FFTs selected (reduces bandwidth)
 parallel 3D FFT for charge:
    minimum data exchange during FFTs selected (reduces bandwidth)


 total amount of memory used by VASP MPI-rank0    85439. kBytes
=======================================================================

   base      :      30000. kBytes
   nonl-proj :       6586. kBytes
   fftplans  :      14299. kBytes
   grid      :      23511. kBytes
   one-center:          6. kBytes
   wavefun   :      11037. kBytes
 
     INWAV:  cpu time    0.0000: real time    0.0000
 Broyden mixing: mesh for mixing (old mesh)
   NGX = 63   NGY = 63   NGZ =103
  (NGX  =256   NGY  =256   NGZ  =420)
  gives a total of 408807 points

 initial charge density was supplied:
 charge density of overlapping atoms calculated
 number of electron     216.0000000 magnetization 
 keeping initial charge density in first step


--------------------------------------------------------------------------------------------------------


 Maximum index for augmentation-charges          459 (set IRDMAX)


--------------------------------------------------------------------------------------------------------


 First call to EWALD:  gamma=   0.128
 Maximum number of real-space cells 3x 3x 2
 Maximum number of reciprocal cells 3x 3x 4

    FEWALD:  cpu time    0.0029: real time    0.0030


--------------------------------------- Iteration      1(   1)  ---------------------------------------


vdW kernel read from vdw_kernel.bindat
  0.0000  0.2424  0.5071  0.7962  1.1119  1.4567  1.8333  2.2446  2.6937  3.1842
  3.7199  4.3049  4.9438  5.6415  6.4036  7.2358  8.1446  9.1372 10.2212 11.4050
 12.6979 14.1099 15.6519 17.3360 19.1751 21.1837 23.3773 25.7729 28.3892 31.2465
 34.3669 37.7748 41.4965 45.5611 50.0000
 
    POTLOK:  cpu time    3.4609: real time    3.6201
    SETDIJ:  cpu time    0.0546: real time    0.0549
    TRIAL :  cpu time    1.5143: real time    1.5317
    CORREC:  cpu time    0.0004: real time    0.0006
    --------------------------------------------
      LOOP:  cpu time    5.0323: real time    5.2310

 eigenvalue-minimisations  :   272
 total energy-change (2. order) : 0.2825389E+04  (-0.1100604E+05)
 number of electron     216.0000000 magnetization 
 augmentation part      216.0000000 magnetization 

 Free energy of the ion-electron system (eV)
  ---------------------------------------------------
  alpha Z        PSCENC =        59.93625244
  Ewald energy   TEWEN  =     29907.56189182
  -Hartree energ DENC   =    -36083.01706340
  -exchange      EXHF   =         0.00000000
  -V(xc)+E(xc)   XCENC  =       352.72905987
  PAW double counting   =      6601.42964284    -6299.49404826
  entropy T*S    EENTRO =        -0.00000000
  eigenvalues    EBANDS =      -271.16903529
  atomic energy  EATOM  =      8557.41276814
  ---------------------------------------------------
  free energy    TOTEN  =      2825.38946817 eV

  energy without entropy =     2825.38946817  energy(sigma->0) =     2825.38946817


--------------------------------------------------------------------------------------------------------




--------------------------------------- Iteration      1(   2)  ---------------------------------------


    TRIAL :  cpu time    2.1327: real time    2.1548
    CORREC:  cpu time    0.0001: real time    0.0001
    --------------------------------------------
      LOOP:  cpu time    2.2005: real time    2.2368

 eigenvalue-minimisations  :   440
 total energy-change (2. order) :-0.2419078E+04  (-0.2262392E+04)
 number of electron     216.0000000 magnetization 
 augmentation part      216.0000000 magnetization 

 Free energy of the ion-electron system (eV)
  ---------------------------------------------------
  alpha Z        PSCENC =        59.93625244
  Ewald energy   TEWEN  =     29907.56189182
  -Hartree energ DENC   =    -36083.01706340
  -exchange      EXHF   =         0.00000000
  -V(xc)+E(xc)   XCENC  =       352.72905987
  PAW double counting   =      6601.42964284    -6299.49404826
  entropy T*S    EENTRO =        -0.00000000
  eigenvalues    EBANDS =     -2690.24666190
  atomic energy  EATOM  =      8557.41276814
  ---------------------------------------------------
  free energy    TOTEN  =       406.31184155 eV

  energy without entropy =      406.31184155  energy(sigma->0) =      406.31184155


--------------------------------------------------------------------------------------------------------




--------------------------------------- Iteration      1(   3)  ---------------------------------------


    TRIAL :  cpu time    1.7623: real time    1.7791
    CORREC:  cpu time    0.0001: real time    0.0001
    --------------------------------------------
      LOOP:  cpu time    1.8084: real time    1.8500

 eigenvalue-minimisations  :   344
 total energy-change (2. order) :-0.7758043E+03  (-0.7694530E+03)
 number of electron     216.0000000 magnetization 
 augmentation part      216.0000000 magnetization 

 Free energy of the ion-electron system (eV)
  ---------------------------------------------------
  alpha Z        PSCENC =        59.93625244
  Ewald energy   TEWEN  =     29907.56189182
  -Hartree energ DENC   =    -36083.01706340
  -exchange      EXHF   =         0.00000000
  -V(xc)+E(xc)   XCENC  =       352.72905987
  PAW double counting   =      6601.42964284    -6299.49404826
  entropy T*S    EENTRO =        -0.00000000
  eigenvalues    EBANDS =     -3466.05091905
  atomic energy  EATOM  =      8557.41276814
  ---------------------------------------------------
  free energy    TOTEN  =      -369.49241559 eV

  energy without entropy =     -369.49241559  energy(sigma->0) =     -369.49241559


--------------------------------------------------------------------------------------------------------




--------------------------------------- Iteration      1(   4)  ---------------------------------------


    TRIAL :  cpu time    1.6995: real time    1.7148
    CORREC:  cpu time    0.0001: real time    0.0001
    --------------------------------------------
      LOOP:  cpu time    1.8011: real time    1.8177

 eigenvalue-minimisations  :   328
 total energy-change (2. order) :-0.6083382E+02  (-0.6033631E+02)
 number of electron     216.0000000 magnetization 
 augmentation part      216.0000000 magnetization 

 Free energy of the ion-electron system (eV)
  ---------------------------------------------------
  alpha Z        PSCENC =        59.93625244
  Ewald energy   TEWEN  =     29907.56189182
  -Hartree energ DENC   =    -36083.01706340
  -exchange      EXHF   =         0.00000000
  -V(xc)+E(xc)   XCENC  =       352.72905987
  PAW double counting   =      6601.42964284    -6299.49404826
  entropy T*S    EENTRO =        -0.00000000
  eigenvalues    EBANDS =     -3526.88474230
  atomic energy  EATOM  =      8557.41276814
  ---------------------------------------------------
  free energy    TOTEN  =      -430.32623884 eV

  energy without entropy =     -430.32623884  energy(sigma->0) =     -430.32623884


--------------------------------------------------------------------------------------------------------




--------------------------------------- Iteration      1(   5)  ---------------------------------------


    TRIAL :  cpu time    1.9744: real time    1.9922
    CORREC:  cpu time    0.0000: real time    0.0000
    CHARGE:  cpu time    0.1198: real time    0.1216
    --------------------------------------------
      LOOP:  cpu time    2.1648: real time    2.1849

 eigenvalue-minimisations  :   400
 total energy-change (2. order) :-0.1960745E+01  (-0.1954194E+01)
 number of electron     216.0000000 magnetization 
 augmentation part       -0.1447025 magnetization 

 Free energy of the ion-electron system (eV)
  ---------------------------------------------------
  alpha Z        PSCENC =        59.93625244
  Ewald energy   TEWEN  =     29907.56189182
  -Hartree energ DENC   =    -36083.01706340
  -exchange      EXHF   =         0.00000000
  -V(xc)+E(xc)   XCENC  =       352.72905987
  PAW double counting   =      6601.42964284    -6299.49404826
  entropy T*S    EENTRO =        -0.00000000
  eigenvalues    EBANDS =     -3528.84548768
  atomic energy  EATOM  =      8557.41276814
  ---------------------------------------------------
  free energy    TOTEN  =      -432.28698422 eV

  energy without entropy =     -432.28698422  energy(sigma->0) =     -432.28698422


--------------------------------------------------------------------------------------------------------




--------------------------------------- Iteration      1(   6)  ---------------------------------------


    POTLOK:  cpu time    3.1479: real time    3.1748
    SETDIJ:  cpu time    0.0529: real time    0.0531
    TRIAL :  cpu time    0.8640: real time    0.8727
    CORREC:  cpu time    3.5038: real time    3.5341
    CHARGE:  cpu time    0.1175: real time    0.1186
    --------------------------------------------
      LOOP:  cpu time    7.7625: real time    7.8308

 eigenvalue-minimisations  :     0
 total energy-change (2. order) : 0.6381862E+02  (-0.2188481E+02)
 number of electron     216.0000000 magnetization 
 augmentation part       -0.2753868 magnetization 

 Free energy of the ion-electron system (eV)
  ---------------------------------------------------
  alpha Z        PSCENC =        59.93625244
  Ewald energy   TEWEN  =     29907.56189182
  -Hartree energ DENC   =    -37618.53015400
  -exchange      EXHF   =         0.00000000
  -V(xc)+E(xc)   XCENC  =       408.22184365
  PAW double counting   =     52713.30606369   -52435.50599219
  entropy T*S    EENTRO =        -0.00000000
  eigenvalues    EBANDS =     -1960.87103327
  atomic energy  EATOM  =      8557.41276814
  ---------------------------------------------------
  free energy    TOTEN  =      -368.46835971 eV

  energy without entropy =     -368.46835971  energy(sigma->0) =     -368.46835971


--------------------------------------------------------------------------------------------------------




--------------------------------------- Iteration      1(   7)  ---------------------------------------


    POTLOK:  cpu time    3.1525: real time    3.1776
    SETDIJ:  cpu time    0.0627: real time    0.0629
    TRIAL :  cpu time    0.8665: real time    0.8746
    CORREC:  cpu time    3.4971: real time    3.5259
    CHARGE:  cpu time    0.1188: real time    0.1200
    --------------------------------------------
      LOOP:  cpu time    7.7763: real time    7.8426

 eigenvalue-minimisations  :     0
 total energy-change (2. order) :-0.2199960E+02  (-0.2188946E+01)
 number of electron     216.0000000 magnetization 
 augmentation part       -0.3284078 magnetization 

 Free energy of the ion-electron system (eV)
  ---------------------------------------------------
  alpha Z        PSCENC =        59.93625244
  Ewald energy   TEWEN  =     29907.56189182
  -Hartree energ DENC   =    -37023.84567743
  -exchange      EXHF   =         0.00000000
  -V(xc)+E(xc)   XCENC  =       385.52079272
  PAW double counting   =     68563.18048485   -68278.30841786
  entropy T*S    EENTRO =        -0.00000000
  eigenvalues    EBANDS =     -2561.92605359
  atomic energy  EATOM  =      8557.41276814
  ---------------------------------------------------
  free energy    TOTEN  =      -390.46795889 eV

  energy without entropy =     -390.46795889  energy(sigma->0) =     -390.46795889


--------------------------------------------------------------------------------------------------------




--------------------------------------- Iteration      1(   8)  ---------------------------------------


    POTLOK:  cpu time    3.1316: real time    3.1559
    SETDIJ:  cpu time    0.0637: real time    0.0640
    TRIAL :  cpu time    0.8600: real time    0.8697
    CORREC:  cpu time    3.5256: real time    3.5552
    CHARGE:  cpu time    0.1176: real time    0.1187
    --------------------------------------------
      LOOP:  cpu time    7.7512: real time    7.8445

 eigenvalue-minimisations  :     0
 total energy-change (2. order) :-0.2185207E+01  (-0.5935929E+00)
 number of electron     216.0000000 magnetization 
 augmentation part       -0.3519948 magnetization 

 Free energy of the ion-electron system (eV)
  ---------------------------------------------------
  alpha Z        PSCENC =        59.93625244
  Ewald energy   TEWEN  =     29907.56189182
  -Hartree energ DENC   =    -36995.06612780
  -exchange      EXHF   =         0.00000000
  -V(xc)+E(xc)   XCENC  =       385.01768635
  PAW double counting   =     73753.40262488   -73467.40784656
  entropy T*S    EENTRO =        -0.00000000
  eigenvalues    EBANDS =     -2593.51041514
  atomic energy  EATOM  =      8557.41276814
  ---------------------------------------------------
  free energy    TOTEN  =      -392.65316587 eV

  energy without entropy =     -392.65316587  energy(sigma->0) =     -392.65316587


--------------------------------------------------------------------------------------------------------




--------------------------------------- Iteration      1(   9)  ---------------------------------------


    POTLOK:  cpu time    3.1382: real time    3.1661
    SETDIJ:  cpu time    0.0622: real time    0.0624
    TRIAL :  cpu time    0.8589: real time    0.8687
    CORREC:  cpu time    3.4979: real time    3.5315
    CHARGE:  cpu time    0.1163: real time    0.1178
    --------------------------------------------
      LOOP:  cpu time    7.7301: real time    7.8042

 eigenvalue-minimisations  :     0
 total energy-change (2. order) :-0.5938177E+00  (-0.2165952E+00)
 number of electron     216.0000000 magnetization 
 augmentation part       -0.3616164 magnetization 

 Free energy of the ion-electron system (eV)
  ---------------------------------------------------
  alpha Z        PSCENC =        59.93625244
  Ewald energy   TEWEN  =     29907.56189182
  -Hartree energ DENC   =    -37010.55624867
  -exchange      EXHF   =         0.00000000
  -V(xc)+E(xc)   XCENC  =       385.49494328
  PAW double counting   =     78041.55395694   -77755.09999823
  entropy T*S    EENTRO =        -0.00000000
  eigenvalues    EBANDS =     -2579.55054927
  atomic energy  EATOM  =      8557.41276814
  ---------------------------------------------------
  free energy    TOTEN  =      -393.24698354 eV

  energy without entropy =     -393.24698354  energy(sigma->0) =     -393.24698354


--------------------------------------------------------------------------------------------------------




--------------------------------------- Iteration      1(  10)  ---------------------------------------


    POTLOK:  cpu time    3.1584: real time    3.1818
    SETDIJ:  cpu time    0.0628: real time    0.0630
    TRIAL :  cpu time    0.8662: real time    0.8748
    CORREC:  cpu time    3.5041: real time    3.5378
    CHARGE:  cpu time    0.1277: real time    0.1296
    --------------------------------------------
      LOOP:  cpu time    7.7961: real time    7.8672

 eigenvalue-minimisations  :     0
 total energy-change (2. order) :-0.2162422E+00  (-0.9524625E-01)
 number of electron     216.0000000 magnetization 
 augmentation part       -0.3594051 magnetization 

 Free energy of the ion-electron system (eV)
  ---------------------------------------------------
  alpha Z        PSCENC =        59.93625244
  Ewald energy   TEWEN  =     29907.56189182
  -Hartree energ DENC   =    -37008.04320096
  -exchange      EXHF   =         0.00000000
  -V(xc)+E(xc)   XCENC  =       385.47717652
  PAW double counting   =     79893.29070312   -79606.54115962
  entropy T*S    EENTRO =        -0.00000000
  eigenvalues    EBANDS =     -2582.55765721
  atomic energy  EATOM  =      8557.41276814
  ---------------------------------------------------
  free energy    TOTEN  =      -393.46322575 eV

  energy without entropy =     -393.46322575  energy(sigma->0) =     -393.46322575


--------------------------------------------------------------------------------------------------------




--------------------------------------- Iteration      1(  11)  ---------------------------------------


    POTLOK:  cpu time    3.1521: real time    3.1846
    SETDIJ:  cpu time    0.0626: real time    0.0628
    TRIAL :  cpu time    0.8628: real time    0.8715
    CORREC:  cpu time    3.4975: real time    3.5248
    CHARGE:  cpu time    0.1171: real time    0.1183
    --------------------------------------------
      LOOP:  cpu time    7.7642: real time    7.8392

 eigenvalue-minimisations  :     0
 total energy-change (2. order) :-0.9488895E-01  (-0.3949553E-01)
 number of electron     216.0000000 magnetization 
 augmentation part       -0.3568440 magnetization 

 Free energy of the ion-electron system (eV)
  ---------------------------------------------------
  alpha Z        PSCENC =        59.93625244
  Ewald energy   TEWEN  =     29907.56189182
  -Hartree energ DENC   =    -37001.60770219
  -exchange      EXHF   =         0.00000000
  -V(xc)+E(xc)   XCENC  =       385.43390877
  PAW double counting   =     80070.77777765   -79783.95709116
  entropy T*S    EENTRO =        -0.00000000
  eigenvalues    EBANDS =     -2589.11592018
  atomic energy  EATOM  =      8557.41276814
  ---------------------------------------------------
  free energy    TOTEN  =      -393.55811470 eV

  energy without entropy =     -393.55811470  energy(sigma->0) =     -393.55811470


--------------------------------------------------------------------------------------------------------




--------------------------------------- Iteration      1(  12)  ---------------------------------------


    POTLOK:  cpu time    3.1454: real time    3.1716
    SETDIJ:  cpu time    0.0638: real time    0.0640
    TRIAL :  cpu time    0.8590: real time    0.8690
    CORREC:  cpu time    3.5027: real time    3.5337
    CHARGE:  cpu time    0.1181: real time    0.1193
    --------------------------------------------
      LOOP:  cpu time    7.7842: real time    7.8543

 eigenvalue-minimisations  :     0
 total energy-change (2. order) :-0.3933224E-01  (-0.1285202E-01)
 number of electron     216.0000000 magnetization 
 augmentation part       -0.3561835 magnetization 

 Free energy of the ion-electron system (eV)
  ---------------------------------------------------
  alpha Z        PSCENC =        59.93625244
  Ewald energy   TEWEN  =     29907.56189182
  -Hartree energ DENC   =    -36998.91823706
  -exchange      EXHF   =         0.00000000
  -V(xc)+E(xc)   XCENC  =       385.36036626
  PAW double counting   =     79644.58360892   -79357.81004925
  entropy T*S    EENTRO =        -0.00000000
  eigenvalues    EBANDS =     -2591.72404822
  atomic energy  EATOM  =      8557.41276814
  ---------------------------------------------------
  free energy    TOTEN  =      -393.59744695 eV

  energy without entropy =     -393.59744695  energy(sigma->0) =     -393.59744695


--------------------------------------------------------------------------------------------------------




--------------------------------------- Iteration      1(  13)  ---------------------------------------


    POTLOK:  cpu time    3.1463: real time    3.1715
    SETDIJ:  cpu time    0.0641: real time    0.0643
    TRIAL :  cpu time    0.8606: real time    0.8704
    CORREC:  cpu time    3.5069: real time    3.5366
    CHARGE:  cpu time    0.1178: real time    0.1190
    --------------------------------------------
      LOOP:  cpu time    7.7718: real time    7.8423

 eigenvalue-minimisations  :     0
 total energy-change (2. order) :-0.1283757E-01  (-0.3846498E-02)
 number of electron     216.0000000 magnetization 
 augmentation part       -0.3559095 magnetization 

 Free energy of the ion-electron system (eV)
  ---------------------------------------------------
  alpha Z        PSCENC =        59.93625244
  Ewald energy   TEWEN  =     29907.56189182
  -Hartree energ DENC   =    -36999.04189497
  -exchange      EXHF   =         0.00000000
  -V(xc)+E(xc)   XCENC  =       385.33776591
  PAW double counting   =     79252.68389536   -78965.96498634
  entropy T*S    EENTRO =        -0.00000000
  eigenvalues    EBANDS =     -2591.53597689
  atomic energy  EATOM  =      8557.41276814
  ---------------------------------------------------
  free energy    TOTEN  =      -393.61028452 eV

  energy without entropy =     -393.61028452  energy(sigma->0) =     -393.61028452


--------------------------------------------------------------------------------------------------------




--------------------------------------- Iteration      1(  14)  ---------------------------------------


    POTLOK:  cpu time    3.1596: real time    3.1828
    SETDIJ:  cpu time    0.0620: real time    0.0621
    TRIAL :  cpu time    0.8611: real time    0.8694
    CORREC:  cpu time    3.5048: real time    3.5320
    CHARGE:  cpu time    0.1180: real time    0.1192
    --------------------------------------------
      LOOP:  cpu time    7.7697: real time    7.8397

 eigenvalue-minimisations  :     0
 total energy-change (2. order) :-0.3846001E-02  (-0.1222315E-02)
 number of electron     216.0000000 magnetization 
 augmentation part       -0.3562195 magnetization 

 Free energy of the ion-electron system (eV)
  ---------------------------------------------------
  alpha Z        PSCENC =        59.93625244
  Ewald energy   TEWEN  =     29907.56189182
  -Hartree energ DENC   =    -36998.84874809
  -exchange      EXHF   =         0.00000000
  -V(xc)+E(xc)   XCENC  =       385.31190859
  PAW double counting   =     79101.64030709   -78814.94674337
  entropy T*S    EENTRO =        -0.00000000
  eigenvalues    EBANDS =     -2591.68176715
  atomic energy  EATOM  =      8557.41276814
  ---------------------------------------------------
  free energy    TOTEN  =      -393.61413052 eV

  energy without entropy =     -393.61413052  energy(sigma->0) =     -393.61413052


--------------------------------------------------------------------------------------------------------




--------------------------------------- Iteration      1(  15)  ---------------------------------------


    POTLOK:  cpu time    3.1408: real time    3.1662
    SETDIJ:  cpu time    0.0640: real time    0.0643
    TRIAL :  cpu time    0.8628: real time    0.8726
    CORREC:  cpu time    3.4941: real time    3.5240
    CHARGE:  cpu time    0.1176: real time    0.1187
    --------------------------------------------
      LOOP:  cpu time    7.7543: real time    7.8327

 eigenvalue-minimisations  :     0
 total energy-change (2. order) :-0.1222098E-02  (-0.5152479E-03)
 number of electron     216.0000000 magnetization 
 augmentation part       -0.3562377 magnetization 

 Free energy of the ion-electron system (eV)
  ---------------------------------------------------
  alpha Z        PSCENC =        59.93625244
  Ewald energy   TEWEN  =     29907.56189182
  -Hartree energ DENC   =    -36998.47031069
  -exchange      EXHF   =         0.00000000
  -V(xc)+E(xc)   XCENC  =       385.28403433
  PAW double counting   =     79049.63957386   -78762.95179786
  entropy T*S    EENTRO =        -0.00000000
  eigenvalues    EBANDS =     -2592.02776467
  atomic energy  EATOM  =      8557.41276814
  ---------------------------------------------------
  free energy    TOTEN  =      -393.61535262 eV

  energy without entropy =     -393.61535262  energy(sigma->0) =     -393.61535262


--------------------------------------------------------------------------------------------------------




--------------------------------------- Iteration      1(  16)  ---------------------------------------


    POTLOK:  cpu time    3.1771: real time    3.2015
    SETDIJ:  cpu time    0.0632: real time    0.0634
    TRIAL :  cpu time    0.8817: real time    0.8904
    CORREC:  cpu time    3.5002: real time    3.5285
    CHARGE:  cpu time    0.1198: real time    0.1210
    --------------------------------------------
      LOOP:  cpu time    7.8043: real time    7.8705

 eigenvalue-minimisations  :     0
 total energy-change (2. order) :-0.5146185E-03  (-0.2579090E-03)
 number of electron     216.0000000 magnetization 
 augmentation part       -0.3562795 magnetization 

 Free energy of the ion-electron system (eV)
  ---------------------------------------------------
  alpha Z        PSCENC =        59.93625244
  Ewald energy   TEWEN  =     29907.56189182
  -Hartree energ DENC   =    -36998.83107699
  -exchange      EXHF   =         0.00000000
  -V(xc)+E(xc)   XCENC  =       385.29870284
  PAW double counting   =     78991.55802117   -78704.87712955
  entropy T*S    EENTRO =        -0.00000000
  eigenvalues    EBANDS =     -2591.67529712
  atomic energy  EATOM  =      8557.41276814
  ---------------------------------------------------
  free energy    TOTEN  =      -393.61586724 eV

  energy without entropy =     -393.61586724  energy(sigma->0) =     -393.61586724


--------------------------------------------------------------------------------------------------------




--------------------------------------- Iteration      1(  17)  ---------------------------------------


    POTLOK:  cpu time    3.1382: real time    3.1629
    SETDIJ:  cpu time    0.0619: real time    0.0621
    TRIAL :  cpu time    0.8624: real time    0.8708
    CORREC:  cpu time    3.5245: real time    3.5536
    CHARGE:  cpu time    0.1185: real time    0.1198
    --------------------------------------------
      LOOP:  cpu time    7.7709: real time    7.8576

 eigenvalue-minimisations  :     0
 total energy-change (2. order) :-0.2580475E-03  (-0.1226554E-03)
 number of electron     216.0000000 magnetization 
 augmentation part       -0.3562389 magnetization 

 Free energy of the ion-electron system (eV)
  ---------------------------------------------------
  alpha Z        PSCENC =        59.93625244
  Ewald energy   TEWEN  =     29907.56189182
  -Hartree energ DENC   =    -36998.80860719
  -exchange      EXHF   =         0.00000000
  -V(xc)+E(xc)   XCENC  =       385.29670105
  PAW double counting   =     78939.24993726   -78652.56770291
  entropy T*S    EENTRO =        -0.00000000
  eigenvalues    EBANDS =     -2591.69736590
  atomic energy  EATOM  =      8557.41276814
  ---------------------------------------------------
  free energy    TOTEN  =      -393.61612528 eV

  energy without entropy =     -393.61612528  energy(sigma->0) =     -393.61612528


--------------------------------------------------------------------------------------------------------




--------------------------------------- Iteration      1(  18)  ---------------------------------------


    POTLOK:  cpu time    3.1460: real time    3.1709
    SETDIJ:  cpu time    0.0634: real time    0.0636
    TRIAL :  cpu time    0.8631: real time    0.8716
    CORREC:  cpu time    3.5098: real time    3.5420
    CHARGE:  cpu time    0.1182: real time    0.1196
    --------------------------------------------
      LOOP:  cpu time    7.7173: real time    7.7991

 eigenvalue-minimisations  :     0
 total energy-change (2. order) :-0.1230921E-03  (-0.4226571E-04)
 number of electron     216.0000000 magnetization 
 augmentation part       -0.3563163 magnetization 

 Free energy of the ion-electron system (eV)
  ---------------------------------------------------
  alpha Z        PSCENC =        59.93625244
  Ewald energy   TEWEN  =     29907.56189182
  -Hartree energ DENC   =    -36998.92700754
  -exchange      EXHF   =         0.00000000
  -V(xc)+E(xc)   XCENC  =       385.30157955
  PAW double counting   =     78919.04338666   -78632.35911321
  entropy T*S    EENTRO =        -0.00000000
  eigenvalues    EBANDS =     -2591.58600624
  atomic energy  EATOM  =      8557.41276814
  ---------------------------------------------------
  free energy    TOTEN  =      -393.61624837 eV

  energy without entropy =     -393.61624837  energy(sigma->0) =     -393.61624837


--------------------------------------------------------------------------------------------------------




--------------------------------------- Iteration      1(  19)  ---------------------------------------


    POTLOK:  cpu time    3.1505: real time    3.1743
    SETDIJ:  cpu time    0.0637: real time    0.0639
    TRIAL :  cpu time    0.8655: real time    0.8738
    CORREC:  cpu time    3.5016: real time    3.5282
    CHARGE:  cpu time    0.1184: real time    0.1196
    --------------------------------------------
      LOOP:  cpu time    7.7774: real time    7.8396

 eigenvalue-minimisations  :     0
 total energy-change (2. order) :-0.4239050E-04  (-0.1569539E-04)
 number of electron     216.0000000 magnetization 
 augmentation part       -0.3563331 magnetization 

 Free energy of the ion-electron system (eV)
  ---------------------------------------------------
  alpha Z        PSCENC =        59.93625244
  Ewald energy   TEWEN  =     29907.56189182
  -Hartree energ DENC   =    -36998.94948447
  -exchange      EXHF   =         0.00000000
  -V(xc)+E(xc)   XCENC  =       385.30119675
  PAW double counting   =     78926.96581097   -78640.27920195
  entropy T*S    EENTRO =        -0.00000000
  eigenvalues    EBANDS =     -2591.56552447
  atomic energy  EATOM  =      8557.41276814
  ---------------------------------------------------
  free energy    TOTEN  =      -393.61629077 eV

  energy without entropy =     -393.61629077  energy(sigma->0) =     -393.61629077


--------------------------------------------------------------------------------------------------------




--------------------------------------- Iteration      1(  20)  ---------------------------------------


    POTLOK:  cpu time    3.1368: real time    3.1618
    SETDIJ:  cpu time    0.0624: real time    0.0626
    TRIAL :  cpu time    0.8613: real time    0.8699
    CORREC:  cpu time    3.4978: real time    3.5258
    CHARGE:  cpu time    0.1186: real time    0.1198
    --------------------------------------------
      LOOP:  cpu time    7.7352: real time    7.8279

 eigenvalue-minimisations  :     0
 total energy-change (2. order) :-0.1579631E-04  (-0.6551779E-05)
 number of electron     216.0000000 magnetization 
 augmentation part       -0.3563395 magnetization 

 Free energy of the ion-electron system (eV)
  ---------------------------------------------------
  alpha Z        PSCENC =        59.93625244
  Ewald energy   TEWEN  =     29907.56189182
  -Hartree energ DENC   =    -36998.96894929
  -exchange      EXHF   =         0.00000000
  -V(xc)+E(xc)   XCENC  =       385.30259199
  PAW double counting   =     78941.61188047   -78654.92475554
  entropy T*S    EENTRO =        -0.00000000
  eigenvalues    EBANDS =     -2591.54798661
  atomic energy  EATOM  =      8557.41276814
  ---------------------------------------------------
  free energy    TOTEN  =      -393.61630656 eV

  energy without entropy =     -393.61630656  energy(sigma->0) =     -393.61630656


--------------------------------------------------------------------------------------------------------




--------------------------------------- Iteration      1(  21)  ---------------------------------------


    POTLOK:  cpu time    3.1498: real time    3.1737
    SETDIJ:  cpu time    0.0623: real time    0.0625
    TRIAL :  cpu time    0.8628: real time    0.8714
    CORREC:  cpu time    3.5195: real time    3.5493
    CHARGE:  cpu time    0.1179: real time    0.1192
    --------------------------------------------
      LOOP:  cpu time    7.7798: real time    7.8450

 eigenvalue-minimisations  :     0
 total energy-change (2. order) :-0.6540358E-05  (-0.3513919E-05)
 number of electron     216.0000000 magnetization 
 augmentation part       -0.3563113 magnetization 

 Free energy of the ion-electron system (eV)
  ---------------------------------------------------
  alpha Z        PSCENC =        59.93625244
  Ewald energy   TEWEN  =     29907.56189182
  -Hartree energ DENC   =    -36998.93846241
  -exchange      EXHF   =         0.00000000
  -V(xc)+E(xc)   XCENC  =       385.30145311
  PAW double counting   =     78951.45324260   -78664.76593267
  entropy T*S    EENTRO =        -0.00000000
  eigenvalues    EBANDS =     -2591.57752614
  atomic energy  EATOM  =      8557.41276814
  ---------------------------------------------------
  free energy    TOTEN  =      -393.61631310 eV

  energy without entropy =     -393.61631310  energy(sigma->0) =     -393.61631310


--------------------------------------------------------------------------------------------------------




--------------------------------------- Iteration      1(  22)  ---------------------------------------


    POTLOK:  cpu time    3.1425: real time    3.1667
    SETDIJ:  cpu time    0.0635: real time    0.0637
    TRIAL :  cpu time    0.8924: real time    0.9008
    CORREC:  cpu time    3.5061: real time    3.5356
    CHARGE:  cpu time    0.1171: real time    0.1184
    --------------------------------------------
      LOOP:  cpu time    7.7918: real time    7.8582

 eigenvalue-minimisations  :     0
 total energy-change (2. order) :-0.3442663E-05  (-0.1570236E-05)
 number of electron     216.0000000 magnetization 
 augmentation part       -0.3563089 magnetization 

 Free energy of the ion-electron system (eV)
  ---------------------------------------------------
  alpha Z        PSCENC =        59.93625244
  Ewald energy   TEWEN  =     29907.56189182
  -Hartree energ DENC   =    -36998.95254557
  -exchange      EXHF   =         0.00000000
  -V(xc)+E(xc)   XCENC  =       385.30214959
  PAW double counting   =     78955.20184853   -78668.51501051
  entropy T*S    EENTRO =        -0.00000000
  eigenvalues    EBANDS =     -2591.56367100
  atomic energy  EATOM  =      8557.41276814
  ---------------------------------------------------
  free energy    TOTEN  =      -393.61631654 eV

  energy without entropy =     -393.61631654  energy(sigma->0) =     -393.61631654


--------------------------------------------------------------------------------------------------------




--------------------------------------- Iteration      1(  23)  ---------------------------------------


    POTLOK:  cpu time    3.1437: real time    3.1713
    SETDIJ:  cpu time    0.0640: real time    0.0642
    TRIAL :  cpu time    0.8609: real time    0.8703
    CORREC:  cpu time    3.5147: real time    3.5425
    CHARGE:  cpu time    0.1186: real time    0.1198
    --------------------------------------------
      LOOP:  cpu time    7.7163: real time    7.8131

 eigenvalue-minimisations  :     0
 total energy-change (2. order) :-0.1568405E-05  (-0.6786750E-06)
 number of electron     216.0000000 magnetization 
 augmentation part       -0.3563072 magnetization 

 Free energy of the ion-electron system (eV)
  ---------------------------------------------------
  alpha Z        PSCENC =        59.93625244
  Ewald energy   TEWEN  =     29907.56189182
  -Hartree energ DENC   =    -36998.93272713
  -exchange      EXHF   =         0.00000000
  -V(xc)+E(xc)   XCENC  =       385.30135814
  PAW double counting   =     78954.82307298   -78668.13618722
  entropy T*S    EENTRO =        -0.00000000
  eigenvalues    EBANDS =     -2591.58274729
  atomic energy  EATOM  =      8557.41276814
  ---------------------------------------------------
  free energy    TOTEN  =      -393.61631811 eV

  energy without entropy =     -393.61631811  energy(sigma->0) =     -393.61631811


--------------------------------------------------------------------------------------------------------




--------------------------------------- Iteration      1(  24)  ---------------------------------------


    POTLOK:  cpu time    3.1740: real time    3.1976
    SETDIJ:  cpu time    0.0629: real time    0.0631
    TRIAL :  cpu time    0.8648: real time    0.8729
    CORREC:  cpu time    3.5056: real time    3.5328
    CHARGE:  cpu time    0.1182: real time    0.1195
    --------------------------------------------
      LOOP:  cpu time    7.7803: real time    7.8412

 eigenvalue-minimisations  :     0
 total energy-change (2. order) :-0.6885821E-06  (-0.3500628E-06)
 number of electron     216.0000000 magnetization 
 augmentation part       -0.3563111 magnetization 

 Free energy of the ion-electron system (eV)
  ---------------------------------------------------
  alpha Z        PSCENC =        59.93625244
  Ewald energy   TEWEN  =     29907.56189182
  -Hartree energ DENC   =    -36998.93068681
  -exchange      EXHF   =         0.00000000
  -V(xc)+E(xc)   XCENC  =       385.30139101
  PAW double counting   =     78953.48206101   -78666.79517855
  entropy T*S    EENTRO =        -0.00000000
  eigenvalues    EBANDS =     -2591.58481788
  atomic energy  EATOM  =      8557.41276814
  ---------------------------------------------------
  free energy    TOTEN  =      -393.61631880 eV

  energy without entropy =     -393.61631880  energy(sigma->0) =     -393.61631880


--------------------------------------------------------------------------------------------------------




--------------------------------------- Iteration      1(  25)  ---------------------------------------


    POTLOK:  cpu time    3.1382: real time    3.1618
    SETDIJ:  cpu time    0.0639: real time    0.0641
    TRIAL :  cpu time    0.8836: real time    0.8954
    CORREC:  cpu time    3.5133: real time    3.5410
    CHARGE:  cpu time    0.1177: real time    0.1190
    --------------------------------------------
      LOOP:  cpu time    7.8104: real time    7.8989

 eigenvalue-minimisations  :     0
 total energy-change (2. order) :-0.3467721E-06  (-0.2009682E-06)
 number of electron     216.0000000 magnetization 
 augmentation part       -0.3563196 magnetization 

 Free energy of the ion-electron system (eV)
  ---------------------------------------------------
  alpha Z        PSCENC =        59.93625244
  Ewald energy   TEWEN  =     29907.56189182
  -Hartree energ DENC   =    -36998.93350044
  -exchange      EXHF   =         0.00000000
  -V(xc)+E(xc)   XCENC  =       385.30150284
  PAW double counting   =     78952.07864762   -78665.39176274
  entropy T*S    EENTRO =        -0.00000000
  eigenvalues    EBANDS =     -2591.58211883
  atomic energy  EATOM  =      8557.41276814
  ---------------------------------------------------
  free energy    TOTEN  =      -393.61631915 eV

  energy without entropy =     -393.61631915  energy(sigma->0) =     -393.61631915


--------------------------------------------------------------------------------------------------------




--------------------------------------- Iteration      1(  26)  ---------------------------------------


    POTLOK:  cpu time    3.1507: real time    3.1743
    SETDIJ:  cpu time    0.0640: real time    0.0642
    TRIAL :  cpu time    0.8617: real time    0.8700
    CORREC:  cpu time    3.5161: real time    3.5449
    CHARGE:  cpu time    0.1186: real time    0.1200
    --------------------------------------------
      LOOP:  cpu time    7.7676: real time    7.8310

 eigenvalue-minimisations  :     0
 total energy-change (2. order) :-0.1696608E-06  (-0.8205771E-07)
 number of electron     216.0000000 magnetization 
 augmentation part       -0.3563211 magnetization 

 Free energy of the ion-electron system (eV)
  ---------------------------------------------------
  alpha Z        PSCENC =        59.93625244
  Ewald energy   TEWEN  =     29907.56189182
  -Hartree energ DENC   =    -36998.93258844
  -exchange      EXHF   =         0.00000000
  -V(xc)+E(xc)   XCENC  =       385.30141525
  PAW double counting   =     78950.86344434   -78664.17654076
  entropy T*S    EENTRO =        -0.00000000
  eigenvalues    EBANDS =     -2591.58296212
  atomic energy  EATOM  =      8557.41276814
  ---------------------------------------------------
  free energy    TOTEN  =      -393.61631932 eV

  energy without entropy =     -393.61631932  energy(sigma->0) =     -393.61631932


--------------------------------------------------------------------------------------------------------




--------------------------------------- Iteration      1(  27)  ---------------------------------------


    POTLOK:  cpu time    3.1444: real time    3.1683
    SETDIJ:  cpu time    0.0619: real time    0.0621
    TRIAL :  cpu time    0.8616: real time    0.8698
    CORREC:  cpu time    3.5019: real time    3.5299
    EDDIAG:  cpu time    0.3244: real time    0.3284
    CHARGE:  cpu time    0.1178: real time    0.1189
    --------------------------------------------
      LOOP:  cpu time    8.0881: real time    8.1571

 eigenvalue-minimisations  :     0
 total energy-change (2. order) :-0.7229391E-07  (-0.4541105E-07)
 number of electron     216.0000000 magnetization 
 augmentation part       -0.3563222 magnetization 

 Free energy of the ion-electron system (eV)
  ---------------------------------------------------
  alpha Z        PSCENC =        59.93625244
  Ewald energy   TEWEN  =     29907.56189182
  -Hartree energ DENC   =    -36998.93636680
  -exchange      EXHF   =         0.00000000
  -V(xc)+E(xc)   XCENC  =       385.30157329
  PAW double counting   =     78950.39462943   -78663.70778342
  entropy T*S    EENTRO =        -0.00000000
  eigenvalues    EBANDS =     -2591.57928430
  atomic energy  EATOM  =      8557.41276814
  ---------------------------------------------------
  free energy    TOTEN  =      -393.61631939 eV

  energy without entropy =     -393.61631939  energy(sigma->0) =     -393.61631939


--------------------------------------------------------------------------------------------------------


  average scaling for gradient   0.8397


 average (electrostatic) potential at core
  the test charge radii are     0.5770  0.5955
  (the norm of the test charge is              1.0000)
       1 -86.4355       2 -86.4349       3 -86.4357       4 -86.4364       5 -86.4342
       6 -86.4341       7 -86.4355       8 -86.4342       9 -86.4346      10 -86.4349
[...]
      16 -86.4342      17 -86.4347      18 -86.4351      19 -86.4354      20 -86.4347
      21 -86.4339      22 -86.4338      23 -86.4369      24 -86.4368      25 -86.4339
      26 -86.4341      27 -86.4346      28 -86.4357      29 -86.4339      30 -86.4339
      31 -86.4360      32 -86.4354      33 -86.4343      34 -86.4342      35 -86.4342
      36 -86.4343      37 -86.4350      38 -86.4352      39 -86.4352      40 -86.4351
      41 -86.4351      42 -86.4352      43 -86.4348      44 -86.4354      45 -86.4340
      46 -86.4341      47 -86.4341      48 -86.4341      49 -86.4352      50 -86.4348
      51 -90.7258      52-120.4910      53-120.4903
 
 
 
 E-fermi :  -4.0196     XC(G=0):  -2.8177     alpha+bet : -2.1113

 Fermi energy:        -4.0196162800

 k-point     1 :       0.0000    0.0000    0.0000
  band No.  band energies     occupation 
      1     -27.5609      2.00000
      2     -26.6113      2.00000
      3     -22.0452      2.00000
      4     -21.1189      2.00000
      5     -21.1176      2.00000
      6     -21.1173      2.00000
      7     -21.1171      2.00000
      8     -21.1169      2.00000
      9     -21.1166      2.00000
     10     -19.3027      2.00000
     11     -19.3026      2.00000
     12     -19.3024      2.00000
     13     -19.3017      2.00000
     14     -19.3013      2.00000
     15     -19.3010      2.00000
     16     -18.4224      2.00000
     17     -18.4222      2.00000
     18     -18.4218      2.00000
     19     -18.4215      2.00000
     20     -18.4208      2.00000
     21     -18.4206      2.00000
     22     -16.3267      2.00000
     23     -16.3263      2.00000
     24     -16.3255      2.00000
     25     -16.3254      2.00000
     26     -16.3249      2.00000
     27     -16.3248      2.00000
     28     -15.2820      2.00000
     29     -15.2820      2.00000
     30     -15.2810      2.00000
     31     -15.2808      2.00000
     32     -15.2804      2.00000
     33     -15.2803      2.00000
     34     -13.9695      2.00000
     35     -13.9694      2.00000
     36     -13.9687      2.00000
     37     -13.9685      2.00000
     38     -13.9685      2.00000
     39     -13.9682      2.00000
     40     -12.4421      2.00000
     41     -11.6730      2.00000
     42     -11.6727      2.00000
     43     -11.6722      2.00000
     44     -11.6722      2.00000
     45     -11.6711      2.00000
     46     -11.6708      2.00000
     47     -11.5045      2.00000
     48     -11.5044      2.00000
     49     -11.5037      2.00000
     50     -11.5037      2.00000
     51     -11.5035      2.00000
     52     -11.5034      2.00000
     53     -11.3298      2.00000
     54     -11.1618      2.00000
     55     -11.1617      2.00000
     56     -10.2240      2.00000
     57     -10.1537      2.00000
     58     -10.1535      2.00000
     59     -10.1519      2.00000
     60     -10.1516      2.00000
     61     -10.1514      2.00000
     62     -10.1513      2.00000
     63      -9.1133      2.00000
     64      -9.1125      2.00000
     65      -9.1124      2.00000
     66      -9.1116      2.00000
     67      -9.1115      2.00000
     68      -9.1114      2.00000
     69      -8.9713      2.00000
     70      -8.9704      2.00000
     71      -8.9700      2.00000
     72      -8.9699      2.00000
     73      -8.9696      2.00000
     74      -8.9693      2.00000
     75      -8.9153      2.00000
     76      -8.9151      2.00000
     77      -8.9144      2.00000
     78      -8.9143      2.00000
     79      -8.9141      2.00000
     80      -8.9133      2.00000
     81      -7.6689      2.00000
     82      -7.6688      2.00000
     83      -7.3619      2.00000
     84      -7.3602      2.00000
     85      -7.3600      2.00000
     86      -7.3597      2.00000
     87      -7.3587      2.00000
     88      -7.3586      2.00000
     89      -6.9956      2.00000
     90      -6.9952      2.00000
     91      -6.9951      2.00000
     92      -6.9947      2.00000
     93      -6.9944      2.00000
     94      -6.9942      2.00000
     95      -6.1061      2.00000
     96      -6.1059      2.00000
     97      -6.1056      2.00000
     98      -6.1054      2.00000
     99      -6.1049      2.00000
    100      -6.1047      2.00000
    101      -5.9375      2.00000
    102      -5.9353      2.00000
    103      -4.1401      2.00000
    104      -4.1397      2.00000
    105      -4.1393      2.00000
    106      -4.1392      2.00000
    107      -4.1385      2.00000
    108      -4.1384      2.00000
    109      -1.3540      0.00000
    110      -1.3538      0.00000
    111      -1.3534      0.00000
    112      -1.3532      0.00000
    113      -1.3526      0.00000
    114      -1.3523      0.00000
    115      -0.0642      0.00000
    116       0.2236      0.00000
    117       0.4927      0.00000
    118       0.4930      0.00000
    119       0.4935      0.00000
    120       0.4936      0.00000
    121       0.4937      0.00000
    122       0.4952      0.00000
    123       0.7483      0.00000
    124       0.9719      0.00000
    125       1.2157      0.00000
    126       1.2439      0.00000
    127       1.2471      0.00000
    128       1.2561      0.00000
    129       1.2612      0.00000
    130       1.2661      0.00000
    131       1.5527      0.00000
    132       1.7536      0.00000
    133       2.1301      0.00000
    134       2.1986      0.00000
    135       2.2023      0.00000
    136       2.2148      0.00000


--------------------------------------------------------------------------------------------------------


 soft charge-density along one line, spin component           1
         0         1         2         3         4         5         6         7         8         9
 total charge-density along one line
 
 pseudopotential strength for first ion, spin component:           1
 12.606  21.216   0.000   0.000  -0.000   0.000   0.000  -0.000
 21.216  35.704   0.000   0.000  -0.000   0.000   0.000  -0.000
  0.000   0.000  -3.321  -0.000   0.000  -5.952  -0.000   0.000
  0.000   0.000  -0.000  -3.357  -0.000  -0.000  -6.014  -0.000
 -0.000  -0.000   0.000  -0.000  -3.321   0.000  -0.000  -5.952
  0.000   0.000  -5.952  -0.000   0.000 -10.645  -0.000   0.000
  0.000   0.000  -0.000  -6.014  -0.000  -0.000 -10.755  -0.000
 -0.000  -0.000   0.000  -0.000  -5.952   0.000  -0.000 -10.645
 total augmentation occupancy for first ion, spin component:           1
  6.242  -2.004  -0.000  -0.002  -0.000   0.000   0.001   0.000
 -2.004   0.691   0.000   0.001   0.000  -0.000  -0.000  -0.000
 -0.000   0.000   5.992  -0.007   0.000  -1.878   0.003  -0.000
 -0.002   0.001  -0.007   2.311  -0.000   0.003  -0.483   0.000
 -0.000   0.000   0.000  -0.000   5.992  -0.000   0.000  -1.878
  0.000  -0.000  -1.878   0.003  -0.000   0.606  -0.001   0.000
  0.001  -0.000   0.003  -0.483   0.000  -0.001   0.111  -0.000
  0.000  -0.000  -0.000   0.000  -1.878   0.000  -0.000   0.606


------------------------ aborting loop because EDIFF is reached ----------------------------------------


    FORLOC:  cpu time    0.0512: real time    0.0518
    FORNL :  cpu time    0.6757: real time    0.6800
    FORCOR:  cpu time    3.2180: real time    3.2431
    OFIELD:  cpu time    0.0015: real time    0.0015

 VOLUME and BASIS-vectors are now :
 -----------------------------------------------------------------------------
  energy-cutoff  :     1000.00
  volume of cell :     2631.08
      direct lattice vectors                 reciprocal lattice vectors
    12.325000000  0.000000000  0.000000000     0.081135903  0.046843835  0.000000000
    -6.162500000 10.673763102  0.000000000     0.000000000  0.093687670  0.000000000
     0.000000000  0.000000000 20.000000000     0.000000000  0.000000000  0.050000000

  length of vectors
    12.325000000 12.325000000 20.000000000     0.093687670  0.093687670  0.050000000


 FORCES acting on ions:
    Electron-Ion                     Ewald-Force                    Non-Local-Force
 -----------------------------------------------------------------------------------------------
   0.114E+01 0.995E+00 0.101E+02   -.114E+01 -.996E+00 -.102E+02   0.489E-02 -.749E-03 0.635E-02
   0.157E+01 0.816E+00 0.114E+02   -.157E+01 -.812E+00 -.114E+02   0.354E-02 -.305E-02 -.591E-02
   0.634E+00 0.173E+01 0.116E+02   -.636E+00 -.173E+01 -.116E+02   -.470E-03 0.120E-01 -.869E-03
   0.798E+00 0.116E+01 0.143E+02   -.796E+00 -.115E+01 -.143E+02   0.121E-01 0.831E-03 -.153E-01
   0.124E+01 0.311E+00 0.106E+02   -.124E+01 -.312E+00 -.106E+02   -.356E-04 -.548E-02 0.382E-02
   0.126E+01 -.277E+00 0.107E+02   -.127E+01 0.278E+00 -.107E+02   -.607E-02 0.305E-02 -.266E-02
   0.154E+01 0.614E+00 0.141E+02   -.154E+01 -.614E+00 -.141E+02   0.124E-01 -.192E-01 -.629E-02
   0.154E+01 -.518E+00 0.153E+02   -.154E+01 0.521E+00 -.153E+02   -.605E-02 -.573E-02 -.559E-02
   -.767E+00 0.163E+01 0.120E+02   0.771E+00 -.164E+01 -.120E+02   -.596E-03 -.120E-01 -.514E-02
   -.103E+01 0.886E+00 0.145E+02   0.103E+01 -.888E+00 -.145E+02   -.259E-01 0.150E-01 0.260E-02
   0.326E+00 -.342E+00 0.967E+01   -.323E+00 0.342E+00 -.967E+01   0.348E-02 -.260E-02 0.226E-03
   0.311E+00 -.261E+00 0.940E+01   -.310E+00 0.261E+00 -.941E+01   -.681E-02 0.335E-02 0.643E-02
   0.514E+00 -.123E+01 0.162E+02   -.516E+00 0.123E+01 -.162E+02   0.268E-01 -.803E-02 -.206E-02
   0.320E+00 -.180E+01 0.131E+02   -.325E+00 0.181E+01 -.131E+02   0.408E-02 0.601E-02 -.166E-01
   -.115E+01 0.694E+00 0.101E+02   0.115E+01 -.695E+00 -.101E+02   0.700E-02 -.368E-02 0.798E-02
   -.148E+01 0.425E+00 0.105E+02   0.148E+01 -.426E+00 -.105E+02   -.190E-02 0.523E-02 -.500E-02
   -.212E+00 -.849E-01 0.898E+01   0.216E+00 0.830E-01 -.898E+01   -.574E-03 0.484E-03 0.197E-02
   0.942E-01 0.725E+00 0.913E+01   -.934E-01 -.726E+00 -.914E+01   -.313E-02 0.176E-02 0.952E-02
   -.296E+00 -.174E+01 0.115E+02   0.295E+00 0.174E+01 -.115E+02   0.630E-02 -.195E-02 0.574E-03
   -.174E+00 -.106E+01 0.988E+01   0.171E+00 0.106E+01 -.988E+01   0.254E-03 -.124E-02 -.723E-03
   0.161E+01 -.697E+00 0.123E+02   -.161E+01 0.698E+00 -.123E+02   -.133E-02 -.236E-02 -.170E-01
   0.114E+01 -.920E+00 0.112E+02   -.115E+01 0.921E+00 -.112E+02   -.644E-02 0.507E-02 -.171E-02
   -.277E+00 0.495E+00 0.163E+02   0.274E+00 -.494E+00 -.163E+02   -.106E-01 0.106E-01 0.121E-02
   -.386E+00 -.784E+00 0.163E+02   0.388E+00 0.783E+00 -.162E+02   0.123E-01 -.150E-01 -.109E-01
   0.625E+00 -.228E+00 0.975E+01   -.623E+00 0.227E+00 -.975E+01   0.335E-02 -.250E-02 -.315E-02
   0.173E+00 0.538E+00 0.962E+01   -.173E+00 -.538E+00 -.963E+01   -.519E-02 0.348E-02 0.606E-02
   -.178E+01 0.204E+00 0.125E+02   0.178E+01 -.207E+00 -.125E+02   0.108E-01 0.793E-02 -.229E-02
   -.167E+01 -.679E+00 0.119E+02   0.168E+01 0.679E+00 -.119E+02   -.907E-02 0.919E-02 0.101E-02
   0.638E+00 -.131E+01 0.114E+02   -.638E+00 0.131E+01 -.114E+02   0.457E-02 0.196E-02 -.660E-02
   0.559E-01 -.577E+00 0.101E+02   -.582E-01 0.579E+00 -.101E+02   -.447E-02 0.230E-02 -.204E-02
   -.119E+01 -.121E+01 0.131E+02   0.119E+01 0.121E+01 -.131E+02   -.121E-01 -.776E-02 -.133E-01
   -.873E+00 -.165E+01 0.114E+02   0.874E+00 0.165E+01 -.114E+02   0.773E-03 -.166E-02 0.227E-02
   0.729E-01 0.353E+00 0.929E+01   -.732E-01 -.353E+00 -.929E+01   0.512E-02 -.456E-02 0.754E-02
   0.207E+00 0.321E+00 0.954E+01   -.210E+00 -.320E+00 -.954E+01   -.213E-02 0.437E-02 -.101E-02
   -.783E+00 0.144E+00 0.979E+01   0.786E+00 -.145E+00 -.979E+01   0.389E-02 -.227E-02 0.646E-02
   -.694E+00 -.317E+00 0.970E+01   0.694E+00 0.317E+00 -.970E+01   -.414E-02 0.234E-02 0.414E-02
   -.131E+01 -.706E+00 0.101E+02   0.132E+01 0.704E+00 -.101E+02   -.131E-02 0.986E-03 0.350E-02
   -.873E+00 -.698E+00 0.951E+01   0.874E+00 0.699E+00 -.952E+01   -.413E-02 0.131E-02 0.929E-02
   -.792E+00 -.100E+01 0.978E+01   0.793E+00 0.101E+01 -.978E+01   -.318E-02 0.250E-03 0.477E-02
   -.118E+00 -.278E+00 0.926E+01   0.119E+00 0.278E+00 -.926E+01   0.198E-02 0.411E-03 0.747E-02
   0.301E+00 0.752E+00 0.926E+01   -.301E+00 -.753E+00 -.927E+01   -.404E-02 0.186E-02 0.694E-02
   0.904E+00 0.138E+01 0.102E+02   -.903E+00 -.138E+01 -.102E+02   -.233E-03 -.729E-03 0.781E-02
   0.995E-01 0.124E+01 0.957E+01   -.959E-01 -.124E+01 -.958E+01   -.461E-03 0.989E-03 0.228E-02
   -.898E-02 0.180E+01 0.111E+02   0.102E-01 -.180E+01 -.111E+02   -.834E-02 0.210E-02 0.554E-02
   -.239E+00 0.444E+00 0.984E+01   0.241E+00 -.446E+00 -.985E+01   0.381E-02 -.284E-02 0.180E-02
   -.865E+00 0.108E+01 0.105E+02   0.866E+00 -.108E+01 -.105E+02   -.605E-02 0.372E-03 -.121E-02
   -.242E+00 -.547E+00 0.974E+01   0.242E+00 0.547E+00 -.974E+01   0.622E-02 -.135E-02 0.642E-02
   -.495E+00 0.175E+00 0.930E+01   0.494E+00 -.174E+00 -.930E+01   -.337E-02 0.313E-02 -.305E-02
   0.500E-01 -.336E+00 0.930E+01   -.506E-01 0.337E+00 -.930E+01   0.437E-02 -.314E-02 0.586E-02
   0.536E+00 0.383E+00 0.928E+01   -.539E+00 -.381E+00 -.928E+01   0.720E-04 0.155E-02 0.333E-02
   0.565E-04 0.245E-01 -.138E+03   -.413E-02 -.210E-01 0.138E+03   -.271E-02 0.194E-02 0.240E-02
   -.229E+03 0.156E+03 -.218E+03   0.279E+03 -.190E+03 0.221E+03   -.513E+02 0.349E+02 -.344E+01
   0.229E+03 -.156E+03 -.198E+03   -.279E+03 0.190E+03 0.195E+03   0.513E+02 -.349E+02 0.310E+01
 -----------------------------------------------------------------------------------------------
   -.744E-02 0.137E-01 0.337E+00   0.568E-13 0.284E-13 0.853E-13   0.741E-02 -.137E-01 -.338E+00
 
 
 POSITION                                       TOTAL-FORCE (eV/Angst)
 -----------------------------------------------------------------------------------
     11.98348      0.00342      0.01417         0.003121     -0.001769     -0.000787
     -0.34154      1.42665      0.01100        -0.000963      0.000207     -0.003484
      2.12355      0.00315      0.01249        -0.002087      0.010760     -0.006245
      2.12326      1.42653      0.00641         0.013780      0.001194     -0.008596
     10.75099      2.13819      0.01213         0.000557     -0.005630      0.000109
     -1.57382      3.56123      0.01110        -0.008953      0.004570     -0.001448
      0.89078      2.13854      0.00548         0.009607     -0.019186      0.001928
      0.89099      3.56147      0.00181        -0.011743     -0.002362      0.011039
      4.58864      0.00346      0.01135         0.003727     -0.015554     -0.003568
      4.58894      1.42623      0.00646        -0.023263      0.013128      0.013164
      9.51854      4.27281      0.01369         0.006523     -0.002961      0.000235
     -2.80632      5.69591      0.01434        -0.006481      0.003344      0.000929
      2.12300      4.27302      0.00000         0.024941     -0.004960      0.019293
      2.12335      5.69594      0.00581        -0.000825      0.009048     -0.003144
      7.05344      0.00333      0.01399         0.009171     -0.005229     -0.000073
      7.05353      1.42635      0.01368        -0.001530      0.004732     -0.003733
      8.28610      6.40752      0.01601         0.002955     -0.001462     -0.000634
     -4.03885      7.83070      0.01636        -0.002245      0.000879      0.000203
      3.35586      6.40753      0.01007         0.005589      0.000666     -0.001212
      3.35599      7.83072      0.01320        -0.003262      0.000102     -0.000651
     -0.34146      4.27290      0.00723        -0.001919     -0.001272     -0.004889
     -0.34138      5.69591      0.00946        -0.009014      0.006489     -0.001051
      3.35624      2.13791      0.00222        -0.014082      0.012041      0.015114
      3.35573      3.56155      0.00139         0.013964     -0.016104      0.007585
     -1.57395      6.40758      0.01311         0.005265     -0.003912     -0.000631
     -1.57385      7.83068      0.01438        -0.004755      0.003772      0.000254
      5.82093      2.13784      0.01033         0.015849      0.005014     -0.002920
      5.82114      3.56097      0.01156        -0.006325      0.008699     -0.003580
      0.89092      6.40755      0.00907         0.004499      0.002243     -0.002324
      0.89106      7.83068      0.01235        -0.006703      0.003953      0.000323
      4.58871      4.27293      0.00850        -0.013197     -0.006081     -0.010923
      4.58852      5.69606      0.01149         0.002156     -0.001497     -0.003761
      9.51845      0.00337      0.01490         0.004709     -0.004576      0.000390
      9.51855      1.42644      0.01438        -0.005171      0.005294     -0.000262
      8.28593      2.13803      0.01453         0.006751     -0.003297      0.000774
      8.28613      3.56115      0.01464        -0.004362      0.002142      0.000140
      7.05356      4.27269      0.01457         0.002808     -0.001159     -0.000509
      7.05362      5.69588      0.01553        -0.002463      0.001618      0.000191
      5.82112      6.40755      0.01489        -0.003053      0.001737      0.000058
      5.82102      7.83073      0.01579         0.002808      0.000139     -0.000024
      7.05363      8.54227      0.01631        -0.004703      0.001296      0.001268
     -5.27149      9.96549      0.01495         0.000447     -0.002054     -0.001844
     -2.80638      8.54234      0.01558         0.003225     -0.001497     -0.001046
     -2.80627      9.96553      0.01362        -0.006923     -0.000181     -0.003438
     -0.34149      8.54239      0.01378         0.005669     -0.004945      0.000316
     -0.34138      9.96550      0.01354        -0.005591     -0.000123     -0.001164
      2.12343      8.54232      0.01336         0.005793     -0.001536      0.000923
      2.12354      9.96544      0.01469        -0.005094      0.003771     -0.001838
      4.58846      8.54235      0.01505         0.003680     -0.002741      0.001140
      4.58853      9.96550      0.01517        -0.002818      0.003305      0.000298
      3.04930      2.68154      7.49154        -0.006708      0.005366      0.032380
      4.02070      2.02068      7.55596        -0.487793      0.331482     -0.048330
      2.07767      3.34267      7.43208         0.494431     -0.336904      0.014057
 -----------------------------------------------------------------------------------
    total drift:                               -0.000027     -0.000013     -0.001176


--------------------------------------------------------------------------------------------------------



  FREE ENERGIE OF THE ION-ELECTRON SYSTEM (eV)
  ---------------------------------------------------
  free  energy   TOTEN  =      -393.61631939 eV

  energy  without entropy=     -393.61631939  energy(sigma->0) =     -393.61631939
 


--------------------------------------------------------------------------------------------------------


    POTLOK:  cpu time    3.2186: real time    3.2431


--------------------------------------------------------------------------------------------------------


     LOOP+:  cpu time  213.5280: real time  215.9279
    4ORBIT:  cpu time    0.0000: real time    0.0000

 total amount of memory used by VASP MPI-rank0    85439. kBytes
=======================================================================

   base      :      30000. kBytes
   nonl-proj :       6586. kBytes
   fftplans  :      14299. kBytes
   grid      :      23511. kBytes
   one-center:          6. kBytes
   wavefun   :      11037. kBytes
 
  
  
 General timing and accounting informations for this job:
 ========================================================
  
                  Total CPU time used (sec):      247.289
                            User time (sec):      227.935
                          System time (sec):       19.354
                         Elapsed time (sec):      251.850
  
                   Maximum memory used (kb):      682596.
                   Average memory used (kb):          N/A
  
                          Minor page faults:       359488
                          Major page faults:           82
                 Voluntary context switches:         3643
