 vasp.6.2.1 16May21 (build Nov 06 2021 14:46:37) complex                        
  
 executed on             LinuxIFC date 2025.03.03  18:04:59
 running on  112 total cores
 distrk:  each k-point on  112 cores,    1 groups
 distr:  one band on NCORE=  28 cores,    4 groups


--------------------------------------------------------------------------------------------------------


 INCAR:
   NPAR = 4
   ALGO = Conjugate
   ISMEAR = 0
   SIGMA = 0.01
   PREC = Accurate
   EDIFF = 1E-7
   ENCUT = 1000
   ISIF = 0
   GGA = ML
   LUSE_VDW = .TRUE.
   ZAB_VDW = -1.8867
   AGGAC = 0.0000
   LASPH = .TRUE.
   SYMPREC = 1E-7
   LWAVE = .FALSE.
   LCHARGE = .FALSE.

 POTCAR:    PAW_PBE C_h 06Feb2004                 
 POTCAR:    PAW_PBE O_h 06Feb2004                 
 -----------------------------------------------------------------------------
|                                                                             |
|           W    W    AA    RRRRR   N    N  II  N    N   GGGG   !!!           |
|           W    W   A  A   R    R  NN   N  II  NN   N  G    G  !!!           |
|           W    W  A    A  R    R  N N  N  II  N N  N  G       !!!           |
|           W WW W  AAAAAA  RRRRR   N  N N  II  N  N N  G  GGG   !            |
|           WW  WW  A    A  R   R   N   NN  II  N   NN  G    G                |
|           W    W  A    A  R    R  N    N  II  N    N   GGGG   !!!           |
|                                                                             |
|     For optimal performance we recommend to set                             |
|       NCORE = 2 up to number-of-cores-per-socket                            |
|     NCORE specifies how many cores store one orbital (NPAR=cpu/NCORE).      |
|     This setting can greatly improve the performance of VASP for DFT.       |
|     The default, NCORE=1 might be grossly inefficient on modern             |
|     multi-core architectures or massively parallel machines. Do your        |
|     own testing! More info at https://www.vasp.at/wiki/index.php/NCORE      |
|     Unfortunately you need to use the default for GW and RPA                |
|     calculations (for HF NCORE is supported but not extensively tested      |
|     yet).                                                                   |
|                                                                             |
 -----------------------------------------------------------------------------

 -----------------------------------------------------------------------------
|                                                                             |
|               ----> ADVICE to this user running VASP <----                  |
|                                                                             |
|     You have switched on vdW-DFT.                                           |
|     This routine was written and supplied by Jiri Klimes. We recommend      |
|     that you carefully read and cite the following publications:            |
|       J. Klimes, D.R. Bowler, A. Michelides                                 |
|          J. Phys.: Cond Matt. 22 022201 (2010)                              |
|       J. Klimes, D.R. Bowler, A. Michelides                                 |
|          Phys. Rev. B. 83, 195131 (2011)                                    |
|     and references therein.                                                 |
|                                                                             |
 -----------------------------------------------------------------------------

 POTCAR:    PAW_PBE C_h 06Feb2004                 
   VRHFIN =C: s2p2                                                                                  
   LEXCH  = PE                                                                                      
   EATOM  =   147.1560 eV,   10.8157 Ry                                                             
                                                                                                    
   TITEL  = PAW_PBE C_h 06Feb2004                                                                   
   LULTRA =        F    use ultrasoft PP ?                                                          
   IUNSCR =        1    unscreen: 0-lin 1-nonlin 2-no                                               
   RPACOR =    0.800    partial core radius                                                         
   POMASS =   12.011; ZVAL   =    4.000    mass and valenz                                          
   RCORE  =    1.100    outmost cutoff radius                                                       
   RWIGS  =    1.630; RWIGS  =    0.863    wigner-seitz radius (au A)                               
   ENMAX  =  700.000; ENMIN  =  500.000 eV                                                          
   ICORE  =        2    local potential                                                             
   LCOR   =        T    correct aug charges                                                         
   LPAW   =        T    paw PP                                                                      
   EAUG   =  946.768                                                                                
   DEXC   =    0.000                                                                                
   RMAX   =    1.128    core radius for proj-oper                                                   
   RAUG   =    1.300    factor for augmentation sphere                                              
   RDEP   =    1.162    radius for radial grids                                                     
   RDEPT  =    1.088    core radius for aug-charge                                                  
                                                                                                    
   Atomic configuration                                                                             
    4 entries                                                                                       
     n  l   j            E        occ.                                                              
     1  0  0.50      -273.3789   2.0000                                                             
     2  0  0.50       -13.7508   2.0000                                                             
     2  1  0.50        -5.2854   2.0000                                                             
     3  2  1.50        -5.4423   0.0000                                                             
   Description                                                                                      
     l       E           TYP  RCUT    TYP  RCUT                                                     
     0    -13.7508458     23  1.100                                                                 
     0     -8.2022199     23  1.100                                                                 
     1     -5.2854383     23  1.100                                                                 
     1      1.1560700     23  1.100                                                                 
     2     -5.4423304      7  1.100                                                                 
  local pseudopotential read in
  partial core-charges read in
  partial kinetic energy density read in
  atomic valenz-charges read in
  non local Contribution for L=           0  read in
    real space projection operators read in
  non local Contribution for L=           0  read in
    real space projection operators read in
  non local Contribution for L=           1  read in
    real space projection operators read in
  non local Contribution for L=           1  read in
    real space projection operators read in
    PAW grid and wavefunctions read in
 
   number of l-projection  operators is LMAX  =           4
   number of lm-projection operators is LMMAX =           8
 
 POTCAR:    PAW_PBE O_h 06Feb2004                 
   VRHFIN =O: s2p4                                                                                  
   LEXCH  = PE                                                                                      
   EATOM  =   432.3788 eV,   31.7789 Ry                                                             
                                                                                                    
   TITEL  = PAW_PBE O_h 06Feb2004                                                                   
   LULTRA =        F    use ultrasoft PP ?                                                          
   IUNSCR =        1    unscreen: 0-lin 1-nonlin 2-no                                               
   RPACOR =    0.800    partial core radius                                                         
   POMASS =   16.000; ZVAL   =    6.000    mass and valenz                                          
   RCORE  =    1.100    outmost cutoff radius                                                       
   RWIGS  =    1.400; RWIGS  =    0.741    wigner-seitz radius (au A)                               
   ENMAX  =  700.000; ENMIN  =  500.000 eV                                                          
   ICORE  =        2    local potential                                                             
   LCOR   =        T    correct aug charges                                                         
   LPAW   =        T    paw PP                                                                      
   EAUG   =  888.804                                                                                
   DEXC   =    0.000                                                                                
   RMAX   =    1.128    core radius for proj-oper                                                   
   RAUG   =    1.300    factor for augmentation sphere                                              
   RDEP   =    1.125    radius for radial grids                                                     
   RDEPT  =    1.088    core radius for aug-charge                                                  
                                                                                                    
   Atomic configuration                                                                             
    4 entries                                                                                       
     n  l   j            E        occ.                                                              
     1  0  0.50      -514.6923   2.0000                                                             
     2  0  0.50       -23.9615   2.0000                                                             
     2  1  0.50        -9.0305   4.0000                                                             
     3  2  1.50        -9.5241   0.0000                                                             
   Description                                                                                      
     l       E           TYP  RCUT    TYP  RCUT                                                     
     0    -23.9615319     23  1.100                                                                 
     0    -25.3221145     23  1.100                                                                 
     1     -9.0304911     23  1.100                                                                 
     1     -5.4802209     23  1.100                                                                 
     2     -9.5240782      7  1.100                                                                 
  local pseudopotential read in
  partial core-charges read in
  partial kinetic energy density read in
  atomic valenz-charges read in
  non local Contribution for L=           0  read in
    real space projection operators read in
  non local Contribution for L=           0  read in
    real space projection operators read in
  non local Contribution for L=           1  read in
    real space projection operators read in
  non local Contribution for L=           1  read in
    real space projection operators read in
    PAW grid and wavefunctions read in
 
   number of l-projection  operators is LMAX  =           4
   number of lm-projection operators is LMMAX =           8
 
 -----------------------------------------------------------------------------
|                                                                             |
|               ----> ADVICE to this user running VASP <----                  |
|                                                                             |
|     You have a (more or less) 'large supercell' and for larger cells it     |
|     might be more efficient to use real-space projection operators.         |
|     Therefore, try LREAL= Auto in the INCAR file.                           |
|     Mind: For very accurate calculation, you might also keep the            |
|     reciprocal projection scheme (i.e. LREAL=.FALSE.).                      |
|                                                                             |
 -----------------------------------------------------------------------------

 -----------------------------------------------------------------------------
|                                                                             |
|               ----> ADVICE to this user running VASP <----                  |
|                                                                             |
|     You enforced a specific xc type in the INCAR file but a different       |
|     type was found in the POTCAR file.                                      |
|     I HOPE YOU KNOW WHAT YOU ARE DOING!                                     |
|                                                                             |
 -----------------------------------------------------------------------------

  PAW_PBE C_h 06Feb2004                 :
 energy of atom  1       EATOM= -147.1560
 kinetic energy error for atom=    0.0031 (will be added to EATOM!!)
  PAW_PBE O_h 06Feb2004                 :
 energy of atom  2       EATOM= -432.3788
 kinetic energy error for atom=    0.0171 (will be added to EATOM!!)
 
 
 POSCAR:  C  O
  positions in cartesian coordinates
  No initial velocities read in
 exchange correlation table for  LEXCH =       44
   RHO(1)=    0.500       N(1)  =     2000
   RHO(2)=  100.500       N(2)  =     4000
 


--------------------------------------------------------------------------------------------------------


 ion  position               nearest neighbor table
   1  0.972  0.000  0.001-  50 1.42   2 1.42  42 1.42
   2  0.039  0.134  0.001-   5 1.42   7 1.42   1 1.42
   3  0.172  0.000  0.001-  42 1.42  44 1.42   4 1.42
   4  0.239  0.134  0.000-   7 1.42   3 1.42  23 1.42
   5  0.972  0.200  0.001-   6 1.42   2 1.42  34 1.42
   6  0.039  0.334  0.001-   5 1.42  21 1.42  11 1.42
   7  0.172  0.200  0.000-   8 1.42   2 1.42   4 1.42
   8  0.239  0.334  0.000-  13 1.42   7 1.42  21 1.42
   9  0.372  0.000  0.001-  10 1.42  44 1.42  46 1.42
  10  0.439  0.134  0.000-  27 1.42   9 1.42  23 1.42
  11  0.972  0.400  0.001-  12 1.42  36 1.42   6 1.42
  12  0.039  0.534  0.001-  25 1.42  11 1.42  17 1.42
  13  0.372  0.400  0.000-   8 1.42  14 1.42  24 1.42
  14  0.439  0.534  0.000-  13 1.42  29 1.42  19 1.42
  15  0.572  0.000  0.001-  46 1.42  16 1.42  48 1.42
  16  0.639  0.134  0.001-  15 1.42  35 1.42  27 1.42
  17  0.972  0.600  0.001-  38 1.42  18 1.42  12 1.42
  18  0.039  0.734  0.001-  43 1.42  41 1.42  17 1.42
  19  0.572  0.600  0.001-  14 1.42  20 1.42  32 1.42
  20  0.639  0.734  0.001-  49 1.42  19 1.42  47 1.42
  21  0.172  0.400  0.000-  22 1.42   8 1.42   6 1.42
  22  0.239  0.534  0.000-  21 1.42  29 1.42  25 1.42
  23  0.372  0.200  0.000-  10 1.42   4 1.42  24 1.42
  24  0.439  0.334  0.000-  13 1.42  31 1.42  23 1.42
  25  0.172  0.600  0.001-  26 1.42  12 1.42  22 1.42
  26  0.239  0.734  0.001-  25 1.42  45 1.42  43 1.42
  27  0.572  0.200  0.001-  10 1.42  28 1.42  16 1.42
  28  0.639  0.334  0.001-  27 1.42  37 1.42  31 1.42
  29  0.372  0.600  0.000-  22 1.42  14 1.42  30 1.42
  30  0.439  0.734  0.001-  47 1.42  29 1.42  45 1.42
  31  0.572  0.400  0.000-  32 1.42  28 1.42  24 1.42
  32  0.639  0.534  0.001-  31 1.42  39 1.42  19 1.42
  33  0.772  0.000  0.001-  34 1.42  48 1.42  50 1.42
  34  0.839  0.134  0.001-  33 1.42   5 1.42  35 1.42
  35  0.772  0.200  0.001-  36 1.42  16 1.42  34 1.42
  36  0.839  0.334  0.001-  35 1.42  11 1.42  37 1.42
  37  0.772  0.400  0.001-  28 1.42  38 1.42  36 1.42
  38  0.839  0.534  0.001-  17 1.42  37 1.42  39 1.42
  39  0.772  0.600  0.001-  40 1.42  38 1.42  32 1.42
  40  0.839  0.734  0.001-  39 1.42  49 1.42  41 1.42
  41  0.972  0.800  0.001-  18 1.42  42 1.42  40 1.42
  42  0.039  0.934  0.001-   3 1.42  41 1.42   1 1.42
  43  0.172  0.800  0.001-  18 1.42  44 1.42  26 1.42
  44  0.239  0.934  0.001-   9 1.42  43 1.42   3 1.42
  45  0.372  0.800  0.001-  26 1.42  46 1.42  30 1.42
  46  0.439  0.934  0.001-  15 1.42  45 1.42   9 1.42
  47  0.572  0.800  0.001-  30 1.42  48 1.42  20 1.42
  48  0.639  0.934  0.001-  47 1.42  33 1.42  15 1.42
  49  0.772  0.800  0.001-  50 1.42  20 1.42  40 1.42
  50  0.839  0.934  0.001-  49 1.42   1 1.42  33 1.42
  51  0.373  0.251  0.157-  52 1.18  53 1.18
  52  0.421  0.189  0.161-  51 1.18
  53  0.325  0.313  0.155-  51 1.18
 
  LATTYP: Found a hexagonal cell.
 ALAT       =    12.3250000000
 C/A-ratio  =     1.6227180527
  
  Lattice vectors:
  
 A1 = (  12.3250000000,   0.0000000000,   0.0000000000)
 A2 = (  -6.1625000000,  10.6737631016,   0.0000000000)
 A3 = (   0.0000000000,   0.0000000000,  20.0000000000)


Analysis of symmetry for initial positions (statically):
=====================================================================
 Subroutine PRICEL returns:
 Original cell was already a primitive cell.
 

 Routine SETGRP: Setting up the symmetry group for a 
 hexagonal supercell.


 Subroutine GETGRP returns: Found  1 space group operations
 (whereof  1 operations were pure point group operations)
 out of a pool of 24 trial point group operations.


The static configuration has the point symmetry C_1 .


Analysis of symmetry for dynamics (positions and initial velocities):
=====================================================================
 Subroutine PRICEL returns:
 Original cell was already a primitive cell.
 

 Routine SETGRP: Setting up the symmetry group for a 
 hexagonal supercell.


 Subroutine GETGRP returns: Found  1 space group operations
 (whereof  1 operations were pure point group operations)
 out of a pool of 24 trial point group operations.


The dynamic configuration has the point symmetry C_1 .


 Subroutine INISYM returns: Found  1 space group operations
 (whereof  1 operations are pure point group operations),
 and found     1 'primitive' translations


----------------------------------------------------------------------------------------

                                     Primitive cell                                     

  volume of cell :    2631.0826

  direct lattice vectors                    reciprocal lattice vectors
    12.325000000  0.000000000  0.000000000     0.081135903  0.046843835  0.000000000
    -6.162500000 10.673763102  0.000000000     0.000000000  0.093687670  0.000000000
     0.000000000  0.000000000 20.000000000     0.000000000  0.000000000  0.050000000

  length of vectors
    12.325000000 12.325000000 20.000000000     0.093687670  0.093687670  0.050000000

  position of ions in fractional coordinates (direct lattice)
     0.972450841  0.000320818  0.000708389
     0.039118382  0.133659505  0.000550216
     0.172443627  0.000295449  0.000624535
     0.239096278  0.133647917  0.000320585
     0.972452058  0.200322012  0.000606523
     0.039128360  0.333643771  0.000555187
     0.172451764  0.200354552  0.000273959
     0.239124359  0.333665720  0.000090325
     0.372465565  0.000324403  0.000567391
     0.439137473  0.133619939  0.000322923
     0.972449824  0.400309362  0.000684513
     0.039124981  0.533636789  0.000716763
     0.372416176  0.400329481  0.000000000
     0.439099602  0.533638981  0.000290518
     0.572443676  0.000312125  0.000699475
     0.639110207  0.133631751  0.000684093
     0.972452703  0.600305653  0.000800361
     0.039124495  0.733640359  0.000818141
     0.572433471  0.600306242  0.000503618
     0.639111888  0.733641879  0.000659881
     0.172454630  0.400318228  0.000361306
     0.239120185  0.533636548  0.000473136
     0.372459750  0.200295993  0.000111246
     0.439107096  0.333673419  0.000069702
     0.172452155  0.600311506  0.000655425
     0.239123371  0.733638574  0.000718912
     0.572431082  0.200289171  0.000516621
     0.639112773  0.333618630  0.000577970
     0.372439808  0.600308022  0.000453556
     0.439116090  0.733637858  0.000617737
     0.572469358  0.400320504  0.000424897
     0.639119408  0.533650873  0.000574513
     0.772445723  0.000315427  0.000745201
     0.839116277  0.133640203  0.000719132
     0.772440513  0.200307432  0.000726291
     0.839120241  0.333635728  0.000731834
     0.772446320  0.400298367  0.000728722
     0.839118980  0.533633964  0.000776376
     0.772456143  0.600308173  0.000744639
     0.839115033  0.733643180  0.000789390
     0.972455313  0.800305582  0.000815291
     0.039114714  0.933643289  0.000747563
     0.172457971  0.800312211  0.000779216
     0.239134551  0.933647193  0.000681063
     0.372451396  0.800316674  0.000689249
     0.439124489  0.933644769  0.000676788
     0.572441101  0.800310054  0.000668168
     0.639115067  0.933638985  0.000734556
     0.772445098  0.800313187  0.000752577
     0.839116614  0.933644338  0.000758538
     0.373021009  0.251226878  0.157490131
     0.420879805  0.189313152  0.160711224
     0.325156981  0.313167186  0.154517388

  ion indices of the primitive-cell ions
   primitive index   ion index
                 1           1
                 2           2
                 3           3
                 4           4
                 5           5
                 6           6
                 7           7
                 8           8
                 9           9
                10          10
                11          11
                12          12
                13          13
                14          14
                15          15
                16          16
                17          17
                18          18
                19          19
                20          20
                21          21
                22          22
                23          23
                24          24
                25          25
                26          26
                27          27
                28          28
                29          29
                30          30
                31          31
                32          32
                33          33
                34          34
                35          35
                36          36
                37          37
                38          38
                39          39
                40          40
                41          41
                42          42
                43          43
                44          44
                45          45
                46          46
                47          47
                48          48
                49          49
                50          50
                51          51
                52          52
                53          53

----------------------------------------------------------------------------------------

 
 
 KPOINTS: auto                                    

Automatic generation of k-mesh.
 Grid dimensions read from file:
 generate k-points for:    1    1    1

 Generating k-lattice:

  Cartesian coordinates                     Fractional coordinates (reciprocal lattice)
     0.081135903  0.046843835  0.000000000     1.000000000 -0.000000000  0.000000000
     0.000000000  0.093687670  0.000000000     0.000000000  1.000000000  0.000000000
     0.000000000  0.000000000  0.050000000     0.000000000  0.000000000  1.000000000

  Length of vectors
     0.093687670  0.093687670  0.050000000

  Shift w.r.t. Gamma in fractional coordinates (k-lattice)
     0.000000000  0.000000000  0.000000000

 
 Subroutine IBZKPT returns following result:
 ===========================================
 
 Found      1 irreducible k-points:
 
 Following reciprocal coordinates:
            Coordinates               Weight
  0.000000  0.000000  0.000000      1.000000
 
 Following cartesian coordinates:
            Coordinates               Weight
  0.000000  0.000000  0.000000      1.000000
 


--------------------------------------------------------------------------------------------------------




 Dimension of arrays:
   k-points           NKPTS =      1   k-points in BZ     NKDIM =      1   number of bands    NBANDS=    136
   number of dos      NEDOS =    301   number of ions     NIONS =     53
   non local maximal  LDIM  =      4   non local SUM 2l+1 LMDIM =      8
   total plane-waves  NPLWV = ******
   max r-space proj   IRMAX =      1   max aug-charges    IRDMAX=   9736
   dimension x,y,z NGX =   128 NGY =  128 NGZ =  210
   dimension x,y,z NGXF=   256 NGYF=  256 NGZF=  420
   support grid    NGXF=   256 NGYF=  256 NGZF=  420
   ions per type =              51   2
   NGX,Y,Z   is equivalent  to a cutoff of  17.27, 17.27, 17.46 a.u.
   NGXF,Y,Z  is equivalent  to a cutoff of  34.53, 34.53, 34.91 a.u.

 SYSTEM =  unknown system                          
 POSCAR =   C  O                                   

 Startparameter for this run:
   NWRITE =      2    write-flag & timer
   PREC   = accura    normal or accurate (medium, high low for compatibility)
   ISTART =      0    job   : 0-new  1-cont  2-samecut
   ICHARG =      2    charge: 1-file 2-atom 10-const
   ISPIN  =      1    spin polarized calculation?
   LNONCOLLINEAR =      F non collinear calculations
   LSORBIT =      F    spin-orbit coupling
   INIWAV =      1    electr: 0-lowe 1-rand  2-diag
   LASPH  =      T    aspherical Exc in radial PAW
 Electronic Relaxation 1
   ENCUT  = 1000.0 eV  73.50 Ry    8.57 a.u.  31.78 31.78 51.57*2*pi/ulx,y,z
   ENINI  = 1000.0     initial cutoff
   ENAUG  =  946.8 eV  augmentation charge cutoff
   NELM   =     60;   NELMIN=  2; NELMDL= -5     # of ELM steps 
   EDIFF  = 0.1E-06   stopping-criterion for ELM
   LREAL  =      F    real-space projection
   NLSPLINE    = F    spline interpolate recip. space projectors
   LCOMPAT=      F    compatible to vasp.4.4
   GGA_COMPAT  = T    GGA compatible to vasp.4.4-vasp.4.6
   LMAXPAW     = -100 max onsite density
   LMAXMIX     =    2 max onsite mixed and CHGCAR
   VOSKOWN=      0    Vosko Wilk Nusair interpolation
   ROPT   =    0.00000   0.00000
 Ionic relaxation
   EDIFFG = 0.1E-05   stopping-criterion for IOM
   NSW    =      0    number of steps for IOM
   NBLOCK =      1;   KBLOCK =      1    inner block; outer block 
   IBRION =     -1    ionic relax: 0-MD 1-quasi-New 2-CG
   NFREE  =      0    steps in history (QN), initial steepest desc. (CG)
   ISIF   =      0    stress and relaxation
   IWAVPR =     10    prediction:  0-non 1-charg 2-wave 3-comb
   ISYM   =      2    0-nonsym 1-usesym 2-fastsym
   LCORR  =      T    Harris-Foulkes like correction to forces

   POTIM  = 0.5000    time-step for ionic-motion
   TEIN   =    0.0    initial temperature
   TEBEG  =    0.0;   TEEND  =   0.0 temperature during run
   SMASS  =  -3.00    Nose mass-parameter (am)
   estimated Nose-frequenzy (Omega)   =  0.10E-29 period in steps = 0.13E+47 mass=  -0.347E-26a.u.
   SCALEE = 1.0000    scale energy and forces
   NPACO  =    256;   APACO  = 16.0  distance and # of slots for P.C.
   PSTRESS=    0.0 pullay stress

  Mass of Ions in am
   POMASS =  12.01 16.00
  Ionic Valenz
   ZVAL   =   4.00  6.00
  Atomic Wigner-Seitz radii
   RWIGS  =  -1.00 -1.00
  virtual crystal weights 
   VCA    =   1.00  1.00
   NELECT =     216.0000    total number of electrons
   NUPDOWN=      -1.0000    fix difference up-down

 DOS related values:
   EMIN   =  10.00;   EMAX   =-10.00  energy-range for DOS
   EFERMI =   0.00
   ISMEAR =     0;   SIGMA  =   0.01  broadening in eV -4-tet -1-fermi 0-gaus

 Electronic relaxation 2 (details)
   IALGO  =     58    algorithm
   LDIAG  =      T    sub-space diagonalisation (order eigenvalues)
   LSUBROT=      F    optimize rotation matrix (better conditioning)
   TURBO    =      0    0=normal 1=particle mesh
   IRESTART =      0    0=no restart 2=restart with 2 vectors
   NREBOOT  =      0    no. of reboots
   NMIN     =      0    reboot dimension
   EREF     =   0.00    reference energy to select bands
   IMIX   =      4    mixing-type and parameters
     AMIX     =   0.40;   BMIX     =  1.00
     AMIX_MAG =   1.60;   BMIX_MAG =  1.00
     AMIN     =   0.10
     WC   =   100.;   INIMIX=   1;  MIXPRE=   1;  MAXMIX= -45

 Intra band minimization:
   WEIMIN = 0.0000     energy-eigenvalue tresh-hold
   EBREAK =  0.18E-09  absolut break condition
   DEPER  =   0.30     relativ break condition  

   TIME   =   0.40     timestep for ELM

  volume/ion in A,a.u.               =      49.64       335.01
  Fermi-wavevector in a.u.,A,eV,Ry     =   0.711510  1.344560  6.887909  0.506247
  Thomas-Fermi vector in A             =   1.798641
 
 Write flags
   LWAVE        =      F    write WAVECAR
   LDOWNSAMPLE  =      F    k-point downsampling of WAVECAR
   LCHARG       =      T    write CHGCAR
   LVTOT        =      F    write LOCPOT, total local potential
   LVHAR        =      F    write LOCPOT, Hartree potential only
   LELF         =      F    write electronic localiz. function (ELF)
   LORBIT       =      0    0 simple, 1 ext, 2 COOP (PROOUT), +10 PAW based schemes


 Dipole corrections
   LMONO  =      F    monopole corrections only (constant potential shift)
   LDIPOL =      F    correct potential (dipole corrections)
   IDIPOL =      0    1-x, 2-y, 3-z, 4-all directions 
   EPSILON=  1.0000000 bulk dielectric constant

 Exchange correlation treatment:
   GGA     =    ML    GGA type
   LEXCH   =    44    internal setting for exchange type
   VOSKOWN=      0    Vosko Wilk Nusair interpolation
   LHFCALC =     F    Hartree Fock is set to
   LHFONE  =     F    Hartree Fock one center treatment
   AEXX    =    0.0000 exact exchange contribution

 vdW DFT:
   LUSE_VDW   =     T    switch on vdW DFT
   Zab_VDW    =******    correlation parameter
   PARAM1     =0.1234
   PARAM2     =1.0000
   PARAM3     =0.0000
   -- rVV10 --
   BPARAM     = 6.3000
   CPARAM     = 0.0093

 Linear response parameters
   LEPSILON=     F    determine dielectric tensor
   LRPA    =     F    only Hartree local field effects (RPA)
   LNABLA  =     F    use nabla operator in PAW spheres
   LVEL    =     F    velocity operator in full k-point grid
   LINTERFAST=   F  fast interpolation
   KINTER  =     0    interpolate to denser k-point grid
   CSHIFT  =0.1000    complex shift for real part using Kramers Kronig
   OMEGAMAX=  -1.0    maximum frequency
   DEG_THRESHOLD= 0.2000000E-02 threshold for treating states as degnerate
   RTIME   =   -0.100 relaxation time in fs
  (WPLASMAI=    0.000 imaginary part of plasma frequency in eV, 0.658/RTIME)
   DFIELD  = 0.0000000 0.0000000 0.0000000 field for delta impulse in time
 
 Orbital magnetization related:
   ORBITALMAG=     F  switch on orbital magnetization
   LCHIMAG   =     F  perturbation theory with respect to B field
   DQ        =  0.001000  dq finite difference perturbation B field
   LLRAUG    =     F  two centre corrections for induced B field



--------------------------------------------------------------------------------------------------------


 Static calculation
 charge density and potential will be updated during run
 non-spin polarized calculation
 Conjugate gradient for all bands (Freysoldt, et al. PRB 79, 241103 (2009))
 preconditioned conjugated gradient                                        
 perform sub-space diagonalisation
    before iterative eigenvector-optimisation
 modified Broyden-mixing scheme, WC =      100.0
 initial mixing is a Kerker type mixing with AMIX =  0.4000 and BMIX =      1.0000
 Hartree-type preconditioning will be used
 using additional bands           28
 reciprocal scheme for non local part
 use partial core corrections
 no Harris-corrections to forces 
 use gradient corrections 
 use of overlap-Matrix (Vanderbilt PP)
 Gauss-broadening in eV      SIGMA  =   0.01


--------------------------------------------------------------------------------------------------------


  energy-cutoff  :     1000.00
  volume of cell :     2631.08
      direct lattice vectors                 reciprocal lattice vectors
    12.325000000  0.000000000  0.000000000     0.081135903  0.046843835  0.000000000
    -6.162500000 10.673763102  0.000000000     0.000000000  0.093687670  0.000000000
     0.000000000  0.000000000 20.000000000     0.000000000  0.000000000  0.050000000

  length of vectors
    12.325000000 12.325000000 20.000000000     0.093687670  0.093687670  0.050000000


 
 k-points in units of 2pi/SCALE and weight: auto                                    
   0.00000000  0.00000000  0.00000000       1.000
 
 k-points in reciprocal lattice and weights: auto                                    
   0.00000000  0.00000000  0.00000000       1.000
 
 position of ions in fractional coordinates (direct lattice) 
   0.97245084  0.00032082  0.00070839
   0.03911838  0.13365950  0.00055022
   0.17244363  0.00029545  0.00062454
   0.23909628  0.13364792  0.00032058
   0.97245206  0.20032201  0.00060652
   0.03912836  0.33364377  0.00055519
   0.17245176  0.20035455  0.00027396
   0.23912436  0.33366572  0.00009033
   0.37246557  0.00032440  0.00056739
   0.43913747  0.13361994  0.00032292
   0.97244982  0.40030936  0.00068451
   0.03912498  0.53363679  0.00071676
   0.37241618  0.40032948  0.00000000
   0.43909960  0.53363898  0.00029052
   0.57244368  0.00031213  0.00069947
   0.63911021  0.13363175  0.00068409
   0.97245270  0.60030565  0.00080036
   0.03912449  0.73364036  0.00081814
   0.57243347  0.60030624  0.00050362
   0.63911189  0.73364188  0.00065988
   0.17245463  0.40031823  0.00036131
   0.23912018  0.53363655  0.00047314
   0.37245975  0.20029599  0.00011125
   0.43910710  0.33367342  0.00006970
   0.17245216  0.60031151  0.00065542
   0.23912337  0.73363857  0.00071891
   0.57243108  0.20028917  0.00051662
   0.63911277  0.33361863  0.00057797
   0.37243981  0.60030802  0.00045356
   0.43911609  0.73363786  0.00061774
   0.57246936  0.40032050  0.00042490
   0.63911941  0.53365087  0.00057451
   0.77244572  0.00031543  0.00074520
   0.83911628  0.13364020  0.00071913
   0.77244051  0.20030743  0.00072629
   0.83912024  0.33363573  0.00073183
   0.77244632  0.40029837  0.00072872
   0.83911898  0.53363396  0.00077638
   0.77245614  0.60030817  0.00074464
   0.83911503  0.73364318  0.00078939
   0.97245531  0.80030558  0.00081529
   0.03911471  0.93364329  0.00074756
   0.17245797  0.80031221  0.00077922
   0.23913455  0.93364719  0.00068106
   0.37245140  0.80031667  0.00068925
   0.43912449  0.93364477  0.00067679
   0.57244110  0.80031005  0.00066817
   0.63911507  0.93363899  0.00073456
   0.77244510  0.80031319  0.00075258
   0.83911661  0.93364434  0.00075854
   0.37302101  0.25122688  0.15749013
   0.42087980  0.18931315  0.16071122
   0.32515698  0.31316719  0.15451739
 
 position of ions in cartesian coordinates  (Angst):
  11.98347958  0.00342433  0.01416777
  -0.34154264  1.42664989  0.01100432
   2.12354700  0.00315355  0.01249070
   2.12325634  1.42652621  0.00641170
  10.75098721  2.13818970  0.01213047
  -1.57382270  3.56123457  0.01110375
   0.89078307  2.13853702  0.00547917
   0.89099273  3.56146885  0.00180651
   4.58863896  0.00346260  0.01134782
   4.58893648  1.42622757  0.00645846
   9.51853763  4.27280730  0.01369027
  -2.80632132  5.69591267  0.01433526
   2.12299894  4.27302204  0.00000000
   2.12335237  5.69593607  0.00581036
   7.05344483  0.00333155  0.01398950
   7.05352764  1.42635365  0.01368187
   8.28609598  6.40752033  0.01600723
  -4.03884931  7.83070339  0.01636283
   3.35585531  6.40752662  0.01007237
   3.35598594  7.83071962  0.01319763
  -0.34145776  4.27290193  0.00722612
  -0.34137895  5.69591010  0.00946273
   3.35624236  2.13791198  0.00222492
   3.35573251  3.56155103  0.00139405
  -1.57394684  6.40758280  0.01310850
  -1.57385216  7.83068434  0.01437823
   5.82093107  2.13783916  0.01033241
   5.82114012  3.56096622  0.01155939
   0.89092245  6.40754561  0.00907111
   0.89106251  7.83067670  0.01235474
   4.58870974  4.27292622  0.00849795
   4.58852320  5.69606300  0.01149026
   9.51844972  0.00336679  0.01490402
   9.51855036  1.42644387  0.01438264
   8.28593477  2.13803408  0.01452582
   8.28612680  3.56114872  0.01463668
   7.05356221  4.27268994  0.01457444
   7.05362213  5.69588251  0.01552751
   5.82112285  6.40754723  0.01489279
   5.82101669  7.83073350  0.01578780
   7.05362858  8.54227219  0.01630582
  -5.27148792  9.96548729  0.01495127
  -2.80637951  8.54234295  0.01558431
  -2.80626749  9.96552896  0.01362126
  -0.34148805  8.54239058  0.01378498
  -0.34137657  9.96550309  0.01353576
   2.12342586  8.54231992  0.01336337
   2.12354296  9.96544135  0.01469111
   4.58845581  8.54235337  0.01505154
   4.58852904  9.96549848  0.01517076
   3.04929830  2.68153618  3.14980262
   4.02070129  2.02068374  3.21422448
   2.07766701  3.34267235  3.09034775
 


--------------------------------------------------------------------------------------------------------


 k-point   1 :   0.0000 0.0000 0.0000  plane waves:  189031

 maximum and minimum number of plane-waves per node :      6755     6748

 maximum number of plane-waves:    189031
 maximum index in each direction: 
   IXMAX=   31   IYMAX=   31   IZMAX=   51
   IXMIN=  -31   IYMIN=  -31   IZMIN=  -51


 parallel 3D FFT for wavefunctions:
    minimum data exchange during FFTs selected (reduces bandwidth)
 parallel 3D FFT for charge:
    minimum data exchange during FFTs selected (reduces bandwidth)


 total amount of memory used by VASP MPI-rank0    85439. kBytes
=======================================================================

   base      :      30000. kBytes
   nonl-proj :       6586. kBytes
   fftplans  :      14299. kBytes
   grid      :      23511. kBytes
   one-center:          6. kBytes
   wavefun   :      11037. kBytes
 
     INWAV:  cpu time    0.0000: real time    0.0000
 Broyden mixing: mesh for mixing (old mesh)
   NGX = 63   NGY = 63   NGZ =103
  (NGX  =256   NGY  =256   NGZ  =420)
  gives a total of 408807 points

 initial charge density was supplied:
 charge density of overlapping atoms calculated
 number of electron     216.0000000 magnetization 
 keeping initial charge density in first step


--------------------------------------------------------------------------------------------------------


 Maximum index for augmentation-charges          459 (set IRDMAX)


--------------------------------------------------------------------------------------------------------


 First call to EWALD:  gamma=   0.128
 Maximum number of real-space cells 3x 3x 2
 Maximum number of reciprocal cells 3x 3x 4

    FEWALD:  cpu time    0.0023: real time    0.0023


--------------------------------------- Iteration      1(   1)  ---------------------------------------


vdW kernel read from vdw_kernel.bindat
  0.0000  0.2424  0.5071  0.7962  1.1119  1.4567  1.8333  2.2446  2.6937  3.1842
  3.7199  4.3049  4.9438  5.6415  6.4036  7.2358  8.1446  9.1372 10.2212 11.4050
 12.6979 14.1099 15.6519 17.3360 19.1751 21.1837 23.3773 25.7729 28.3892 31.2465
 34.3669 37.7748 41.4965 45.5611 50.0000
 
    POTLOK:  cpu time    3.4696: real time    3.5046
    SETDIJ:  cpu time    0.0553: real time    0.0557
    TRIAL :  cpu time    1.5184: real time    1.5340
    CORREC:  cpu time    0.0006: real time    0.0006
    --------------------------------------------
      LOOP:  cpu time    5.0461: real time    5.1179

 eigenvalue-minimisations  :   272
 total energy-change (2. order) : 0.2851112E+04  (-0.1100676E+05)
 number of electron     216.0000000 magnetization 
 augmentation part      216.0000000 magnetization 

 Free energy of the ion-electron system (eV)
  ---------------------------------------------------
  alpha Z        PSCENC =        59.93625244
  Ewald energy   TEWEN  =     34385.40656134
  -Hartree energ DENC   =    -40560.25757233
  -exchange      EXHF   =         0.00000000
  -V(xc)+E(xc)   XCENC  =       352.83761418
  PAW double counting   =      6601.42964284    -6299.49404826
  entropy T*S    EENTRO =        -0.00000000
  eigenvalues    EBANDS =      -246.15940850
  atomic energy  EATOM  =      8557.41276814
  ---------------------------------------------------
  free energy    TOTEN  =      2851.11180986 eV

  energy without entropy =     2851.11180986  energy(sigma->0) =     2851.11180986


--------------------------------------------------------------------------------------------------------




--------------------------------------- Iteration      1(   2)  ---------------------------------------


    TRIAL :  cpu time    2.0954: real time    2.1146
    CORREC:  cpu time    0.0000: real time    0.0000
    --------------------------------------------
      LOOP:  cpu time    2.1430: real time    2.1765

 eigenvalue-minimisations  :   432
 total energy-change (2. order) :-0.2437867E+04  (-0.2281528E+04)
 number of electron     216.0000000 magnetization 
 augmentation part      216.0000000 magnetization 

 Free energy of the ion-electron system (eV)
  ---------------------------------------------------
  alpha Z        PSCENC =        59.93625244
  Ewald energy   TEWEN  =     34385.40656134
  -Hartree energ DENC   =    -40560.25757233
  -exchange      EXHF   =         0.00000000
  -V(xc)+E(xc)   XCENC  =       352.83761418
  PAW double counting   =      6601.42964284    -6299.49404826
  entropy T*S    EENTRO =        -0.00000000
  eigenvalues    EBANDS =     -2684.02649270
  atomic energy  EATOM  =      8557.41276814
  ---------------------------------------------------
  free energy    TOTEN  =       413.24472566 eV

  energy without entropy =      413.24472566  energy(sigma->0) =      413.24472566


--------------------------------------------------------------------------------------------------------




--------------------------------------- Iteration      1(   3)  ---------------------------------------


    TRIAL :  cpu time    1.8348: real time    1.8515
    CORREC:  cpu time    0.0001: real time    0.0001
    --------------------------------------------
      LOOP:  cpu time    1.9280: real time    1.9461

 eigenvalue-minimisations  :   360
 total energy-change (2. order) :-0.7858986E+03  (-0.7804049E+03)
 number of electron     216.0000000 magnetization 
 augmentation part      216.0000000 magnetization 

 Free energy of the ion-electron system (eV)
  ---------------------------------------------------
  alpha Z        PSCENC =        59.93625244
  Ewald energy   TEWEN  =     34385.40656134
  -Hartree energ DENC   =    -40560.25757233
  -exchange      EXHF   =         0.00000000
  -V(xc)+E(xc)   XCENC  =       352.83761418
  PAW double counting   =      6601.42964284    -6299.49404826
  entropy T*S    EENTRO =        -0.00000000
  eigenvalues    EBANDS =     -3469.92509221
  atomic energy  EATOM  =      8557.41276814
  ---------------------------------------------------
  free energy    TOTEN  =      -372.65387385 eV

  energy without entropy =     -372.65387385  energy(sigma->0) =     -372.65387385


--------------------------------------------------------------------------------------------------------




--------------------------------------- Iteration      1(   4)  ---------------------------------------


    TRIAL :  cpu time    1.7644: real time    1.7801
    CORREC:  cpu time    0.0001: real time    0.0001
    --------------------------------------------
      LOOP:  cpu time    1.8242: real time    1.8404

 eigenvalue-minimisations  :   344
 total energy-change (2. order) :-0.5789492E+02  (-0.5736583E+02)
 number of electron     216.0000000 magnetization 
 augmentation part      216.0000000 magnetization 

 Free energy of the ion-electron system (eV)
  ---------------------------------------------------
  alpha Z        PSCENC =        59.93625244
  Ewald energy   TEWEN  =     34385.40656134
  -Hartree energ DENC   =    -40560.25757233
  -exchange      EXHF   =         0.00000000
  -V(xc)+E(xc)   XCENC  =       352.83761418
  PAW double counting   =      6601.42964284    -6299.49404826
  entropy T*S    EENTRO =        -0.00000000
  eigenvalues    EBANDS =     -3527.82001140
  atomic energy  EATOM  =      8557.41276814
  ---------------------------------------------------
  free energy    TOTEN  =      -430.54879304 eV

  energy without entropy =     -430.54879304  energy(sigma->0) =     -430.54879304


--------------------------------------------------------------------------------------------------------




--------------------------------------- Iteration      1(   5)  ---------------------------------------


    TRIAL :  cpu time    1.9348: real time    1.9519
    CORREC:  cpu time    0.0001: real time    0.0004
    CHARGE:  cpu time    0.1206: real time    0.1220
    --------------------------------------------
      LOOP:  cpu time    2.1644: real time    2.1882

 eigenvalue-minimisations  :   392
 total energy-change (2. order) :-0.1815926E+01  (-0.1808943E+01)
 number of electron     216.0000000 magnetization 
 augmentation part       -0.1404790 magnetization 

 Free energy of the ion-electron system (eV)
  ---------------------------------------------------
  alpha Z        PSCENC =        59.93625244
  Ewald energy   TEWEN  =     34385.40656134
  -Hartree energ DENC   =    -40560.25757233
  -exchange      EXHF   =         0.00000000
  -V(xc)+E(xc)   XCENC  =       352.83761418
  PAW double counting   =      6601.42964284    -6299.49404826
  entropy T*S    EENTRO =        -0.00000000
  eigenvalues    EBANDS =     -3529.63593697
  atomic energy  EATOM  =      8557.41276814
  ---------------------------------------------------
  free energy    TOTEN  =      -432.36471861 eV

  energy without entropy =     -432.36471861  energy(sigma->0) =     -432.36471861


--------------------------------------------------------------------------------------------------------




--------------------------------------- Iteration      1(   6)  ---------------------------------------


    POTLOK:  cpu time    3.1410: real time    3.1650
    SETDIJ:  cpu time    0.0543: real time    0.0545
    TRIAL :  cpu time    0.8627: real time    0.8711
    CORREC:  cpu time    3.5053: real time    3.5326
    CHARGE:  cpu time    0.1168: real time    0.1180
    --------------------------------------------
      LOOP:  cpu time    7.7795: real time    7.8431

 eigenvalue-minimisations  :     0
 total energy-change (2. order) : 0.6348493E+02  (-0.2176518E+02)
 number of electron     216.0000000 magnetization 
 augmentation part       -0.2735278 magnetization 

 Free energy of the ion-electron system (eV)
  ---------------------------------------------------
  alpha Z        PSCENC =        59.93625244
  Ewald energy   TEWEN  =     34385.40656134
  -Hartree energ DENC   =    -42094.52478550
  -exchange      EXHF   =         0.00000000
  -V(xc)+E(xc)   XCENC  =       408.05702945
  PAW double counting   =     52574.10278066   -52296.27112961
  entropy T*S    EENTRO =        -0.00000000
  eigenvalues    EBANDS =     -1962.99926225
  atomic energy  EATOM  =      8557.41276814
  ---------------------------------------------------
  free energy    TOTEN  =      -368.87978533 eV

  energy without entropy =     -368.87978533  energy(sigma->0) =     -368.87978533


--------------------------------------------------------------------------------------------------------




--------------------------------------- Iteration      1(   7)  ---------------------------------------


    POTLOK:  cpu time    3.1390: real time    3.1623
    SETDIJ:  cpu time    0.0633: real time    0.0635
    TRIAL :  cpu time    0.8640: real time    0.8733
    CORREC:  cpu time    3.5236: real time    3.5516
    CHARGE:  cpu time    0.1172: real time    0.1184
    --------------------------------------------
      LOOP:  cpu time    7.7649: real time    7.8518

 eigenvalue-minimisations  :     0
 total energy-change (2. order) :-0.2186424E+02  (-0.2124360E+01)
 number of electron     216.0000000 magnetization 
 augmentation part       -0.3274678 magnetization 

 Free energy of the ion-electron system (eV)
  ---------------------------------------------------
  alpha Z        PSCENC =        59.93625244
  Ewald energy   TEWEN  =     34385.40656134
  -Hartree energ DENC   =    -41498.84254636
  -exchange      EXHF   =         0.00000000
  -V(xc)+E(xc)   XCENC  =       385.54493699
  PAW double counting   =     68458.79987897   -68173.90435659
  entropy T*S    EENTRO =        -0.00000000
  eigenvalues    EBANDS =     -2565.09751682
  atomic energy  EATOM  =      8557.41276814
  ---------------------------------------------------
  free energy    TOTEN  =      -390.74402189 eV

  energy without entropy =     -390.74402189  energy(sigma->0) =     -390.74402189


--------------------------------------------------------------------------------------------------------




--------------------------------------- Iteration      1(   8)  ---------------------------------------


    POTLOK:  cpu time    3.1427: real time    3.1669
    SETDIJ:  cpu time    0.0657: real time    0.0660
    TRIAL :  cpu time    0.8724: real time    0.8837
    CORREC:  cpu time    3.4941: real time    3.5219
    CHARGE:  cpu time    0.1162: real time    0.1175
    --------------------------------------------
      LOOP:  cpu time    7.7176: real time    7.8211

 eigenvalue-minimisations  :     0
 total energy-change (2. order) :-0.2122752E+01  (-0.5707112E+00)
 number of electron     216.0000000 magnetization 
 augmentation part       -0.3504115 magnetization 

 Free energy of the ion-electron system (eV)
  ---------------------------------------------------
  alpha Z        PSCENC =        59.93625244
  Ewald energy   TEWEN  =     34385.40656134
  -Hartree energ DENC   =    -41475.29785115
  -exchange      EXHF   =         0.00000000
  -V(xc)+E(xc)   XCENC  =       385.09238566
  PAW double counting   =     73786.65306920   -73500.64475027
  entropy T*S    EENTRO =        -0.00000000
  eigenvalues    EBANDS =     -2591.42520877
  atomic energy  EATOM  =      8557.41276814
  ---------------------------------------------------
  free energy    TOTEN  =      -392.86677340 eV

  energy without entropy =     -392.86677340  energy(sigma->0) =     -392.86677340


--------------------------------------------------------------------------------------------------------




--------------------------------------- Iteration      1(   9)  ---------------------------------------


    POTLOK:  cpu time    3.1515: real time    3.1777
    SETDIJ:  cpu time    0.0641: real time    0.0643
    TRIAL :  cpu time    0.8597: real time    0.8684
    CORREC:  cpu time    3.5243: real time    3.5517
    CHARGE:  cpu time    0.1172: real time    0.1184
    --------------------------------------------
      LOOP:  cpu time    7.7708: real time    7.8377

 eigenvalue-minimisations  :     0
 total energy-change (2. order) :-0.5707384E+00  (-0.2056682E+00)
 number of electron     216.0000000 magnetization 
 augmentation part       -0.3594832 magnetization 

 Free energy of the ion-electron system (eV)
  ---------------------------------------------------
  alpha Z        PSCENC =        59.93625244
  Ewald energy   TEWEN  =     34385.40656134
  -Hartree energ DENC   =    -41488.48781793
  -exchange      EXHF   =         0.00000000
  -V(xc)+E(xc)   XCENC  =       385.53567602
  PAW double counting   =     78076.12492482   -77789.66009353
  entropy T*S    EENTRO =        -0.00000000
  eigenvalues    EBANDS =     -2579.70578306
  atomic energy  EATOM  =      8557.41276814
  ---------------------------------------------------
  free energy    TOTEN  =      -393.43751175 eV

  energy without entropy =     -393.43751175  energy(sigma->0) =     -393.43751175


--------------------------------------------------------------------------------------------------------




--------------------------------------- Iteration      1(  10)  ---------------------------------------


    POTLOK:  cpu time    3.1430: real time    3.1690
    SETDIJ:  cpu time    0.0655: real time    0.0657
    TRIAL :  cpu time    0.8591: real time    0.8686
    CORREC:  cpu time    3.4934: real time    3.5254
    CHARGE:  cpu time    0.1167: real time    0.1181
    --------------------------------------------
      LOOP:  cpu time    7.7686: real time    7.8398

 eigenvalue-minimisations  :     0
 total energy-change (2. order) :-0.2052490E+00  (-0.8864849E-01)
 number of electron     216.0000000 magnetization 
 augmentation part       -0.3582776 magnetization 

 Free energy of the ion-electron system (eV)
  ---------------------------------------------------
  alpha Z        PSCENC =        59.93625244
  Ewald energy   TEWEN  =     34385.40656134
  -Hartree energ DENC   =    -41485.07155257
  -exchange      EXHF   =         0.00000000
  -V(xc)+E(xc)   XCENC  =       385.51004687
  PAW double counting   =     79859.02353658   -79572.27594558
  entropy T*S    EENTRO =        -0.00000000
  eigenvalues    EBANDS =     -2583.58442796
  atomic energy  EATOM  =      8557.41276814
  ---------------------------------------------------
  free energy    TOTEN  =      -393.64276074 eV

  energy without entropy =     -393.64276074  energy(sigma->0) =     -393.64276074


--------------------------------------------------------------------------------------------------------




--------------------------------------- Iteration      1(  11)  ---------------------------------------


    POTLOK:  cpu time    3.1273: real time    3.1606
    SETDIJ:  cpu time    0.0652: real time    0.0655
    TRIAL :  cpu time    0.8597: real time    0.8694
    CORREC:  cpu time    3.4953: real time    3.5266
    CHARGE:  cpu time    0.1174: real time    0.1187
    --------------------------------------------
      LOOP:  cpu time    7.6680: real time    7.8769

 eigenvalue-minimisations  :     0
 total energy-change (2. order) :-0.8830913E-01  (-0.3633767E-01)
 number of electron     216.0000000 magnetization 
 augmentation part       -0.3562898 magnetization 

 Free energy of the ion-electron system (eV)
  ---------------------------------------------------
  alpha Z        PSCENC =        59.93625244
  Ewald energy   TEWEN  =     34385.40656134
  -Hartree energ DENC   =    -41479.10224937
  -exchange      EXHF   =         0.00000000
  -V(xc)+E(xc)   XCENC  =       385.45611323
  PAW double counting   =     80007.75403393   -79720.93898203
  entropy T*S    EENTRO =        -0.00000000
  eigenvalues    EBANDS =     -2589.65556755
  atomic energy  EATOM  =      8557.41276814
  ---------------------------------------------------
  free energy    TOTEN  =      -393.73106987 eV

  energy without entropy =     -393.73106987  energy(sigma->0) =     -393.73106987


--------------------------------------------------------------------------------------------------------




--------------------------------------- Iteration      1(  12)  ---------------------------------------


    POTLOK:  cpu time    3.1340: real time    3.1678
    SETDIJ:  cpu time    0.0651: real time    0.0656
    TRIAL :  cpu time    0.8545: real time    0.8704
    CORREC:  cpu time    3.4887: real time    3.5359
    CHARGE:  cpu time    0.1166: real time    0.1179
    --------------------------------------------
      LOOP:  cpu time    7.6623: real time    7.8389

 eigenvalue-minimisations  :     0
 total energy-change (2. order) :-0.3617675E-01  (-0.1163991E-01)
 number of electron     216.0000000 magnetization 
 augmentation part       -0.3559068 magnetization 

 Free energy of the ion-electron system (eV)
  ---------------------------------------------------
  alpha Z        PSCENC =        59.93625244
  Ewald energy   TEWEN  =     34385.40656134
  -Hartree energ DENC   =    -41476.68363642
  -exchange      EXHF   =         0.00000000
  -V(xc)+E(xc)   XCENC  =       385.40022862
  PAW double counting   =     79583.03382503   -79296.26769080
  entropy T*S    EENTRO =        -0.00000000
  eigenvalues    EBANDS =     -2592.00555496
  atomic energy  EATOM  =      8557.41276814
  ---------------------------------------------------
  free energy    TOTEN  =      -393.76724662 eV

  energy without entropy =     -393.76724662  energy(sigma->0) =     -393.76724662


--------------------------------------------------------------------------------------------------------




--------------------------------------- Iteration      1(  13)  ---------------------------------------


    POTLOK:  cpu time    3.1505: real time    3.1747
    SETDIJ:  cpu time    0.0651: real time    0.0653
    TRIAL :  cpu time    0.8724: real time    0.8806
    CORREC:  cpu time    3.4981: real time    3.5249
    CHARGE:  cpu time    0.1159: real time    0.1171
    --------------------------------------------
      LOOP:  cpu time    7.7295: real time    7.7929

 eigenvalue-minimisations  :     0
 total energy-change (2. order) :-0.1162221E-01  (-0.3465814E-02)
 number of electron     216.0000000 magnetization 
 augmentation part       -0.3557912 magnetization 

 Free energy of the ion-electron system (eV)
  ---------------------------------------------------
  alpha Z        PSCENC =        59.93625244
  Ewald energy   TEWEN  =     34385.40656134
  -Hartree energ DENC   =    -41476.31232555
  -exchange      EXHF   =         0.00000000
  -V(xc)+E(xc)   XCENC  =       385.36733729
  PAW double counting   =     79223.13776590   -78936.42113161
  entropy T*S    EENTRO =        -0.00000000
  eigenvalues    EBANDS =     -2592.30609678
  atomic energy  EATOM  =      8557.41276814
  ---------------------------------------------------
  free energy    TOTEN  =      -393.77886883 eV

  energy without entropy =     -393.77886883  energy(sigma->0) =     -393.77886883


--------------------------------------------------------------------------------------------------------




--------------------------------------- Iteration      1(  14)  ---------------------------------------


    POTLOK:  cpu time    3.1365: real time    3.1598
    SETDIJ:  cpu time    0.0641: real time    0.0643
    TRIAL :  cpu time    0.8610: real time    0.8689
    CORREC:  cpu time    3.5051: real time    3.5320
    CHARGE:  cpu time    0.1172: real time    0.1184
    --------------------------------------------
      LOOP:  cpu time    7.7229: real time    7.7960

 eigenvalue-minimisations  :     0
 total energy-change (2. order) :-0.3463809E-02  (-0.1087912E-02)
 number of electron     216.0000000 magnetization 
 augmentation part       -0.3561382 magnetization 

 Free energy of the ion-electron system (eV)
  ---------------------------------------------------
  alpha Z        PSCENC =        59.93625244
  Ewald energy   TEWEN  =     34385.40656134
  -Hartree energ DENC   =    -41476.18051534
  -exchange      EXHF   =         0.00000000
  -V(xc)+E(xc)   XCENC  =       385.34561131
  PAW double counting   =     79088.38883654   -78801.69593940
  entropy T*S    EENTRO =        -0.00000000
  eigenvalues    EBANDS =     -2592.39590768
  atomic energy  EATOM  =      8557.41276814
  ---------------------------------------------------
  free energy    TOTEN  =      -393.78233264 eV

  energy without entropy =     -393.78233264  energy(sigma->0) =     -393.78233264


--------------------------------------------------------------------------------------------------------




--------------------------------------- Iteration      1(  15)  ---------------------------------------


    POTLOK:  cpu time    3.1431: real time    3.1675
    SETDIJ:  cpu time    0.0656: real time    0.0659
    TRIAL :  cpu time    0.8579: real time    0.8663
    CORREC:  cpu time    3.5132: real time    3.5413
    CHARGE:  cpu time    0.1167: real time    0.1180
    --------------------------------------------
      LOOP:  cpu time    7.7560: real time    7.8194

 eigenvalue-minimisations  :     0
 total energy-change (2. order) :-0.1087038E-02  (-0.4580382E-03)
 number of electron     216.0000000 magnetization 
 augmentation part       -0.3562009 magnetization 

 Free energy of the ion-electron system (eV)
  ---------------------------------------------------
  alpha Z        PSCENC =        59.93625244
  Ewald energy   TEWEN  =     34385.40656134
  -Hartree energ DENC   =    -41475.85154702
  -exchange      EXHF   =         0.00000000
  -V(xc)+E(xc)   XCENC  =       385.32197811
  PAW double counting   =     79051.32563892   -78764.63799472
  entropy T*S    EENTRO =        -0.00000000
  eigenvalues    EBANDS =     -2592.69707689
  atomic energy  EATOM  =      8557.41276814
  ---------------------------------------------------
  free energy    TOTEN  =      -393.78341967 eV

  energy without entropy =     -393.78341967  energy(sigma->0) =     -393.78341967


--------------------------------------------------------------------------------------------------------




--------------------------------------- Iteration      1(  16)  ---------------------------------------


    POTLOK:  cpu time    3.1691: real time    3.1977
    SETDIJ:  cpu time    0.0645: real time    0.0647
    TRIAL :  cpu time    0.8646: real time    0.8733
    CORREC:  cpu time    3.5032: real time    3.5312
    CHARGE:  cpu time    0.1169: real time    0.1181
    --------------------------------------------
      LOOP:  cpu time    7.7684: real time    7.8383

 eigenvalue-minimisations  :     0
 total energy-change (2. order) :-0.4569250E-03  (-0.2251679E-03)
 number of electron     216.0000000 magnetization 
 augmentation part       -0.3561806 magnetization 

 Free energy of the ion-electron system (eV)
  ---------------------------------------------------
  alpha Z        PSCENC =        59.93625244
  Ewald energy   TEWEN  =     34385.40656134
  -Hartree energ DENC   =    -41476.07983960
  -exchange      EXHF   =         0.00000000
  -V(xc)+E(xc)   XCENC  =       385.33126310
  PAW double counting   =     79010.15650931   -78723.47408748
  entropy T*S    EENTRO =        -0.00000000
  eigenvalues    EBANDS =     -2592.47330386
  atomic energy  EATOM  =      8557.41276814
  ---------------------------------------------------
  free energy    TOTEN  =      -393.78387660 eV

  energy without entropy =     -393.78387660  energy(sigma->0) =     -393.78387660


--------------------------------------------------------------------------------------------------------




--------------------------------------- Iteration      1(  17)  ---------------------------------------


    POTLOK:  cpu time    3.1557: real time    3.1801
    SETDIJ:  cpu time    0.0656: real time    0.0658
    TRIAL :  cpu time    0.8599: real time    0.8683
    CORREC:  cpu time    3.5284: real time    3.5574
    CHARGE:  cpu time    0.1170: real time    0.1182
    --------------------------------------------
      LOOP:  cpu time    7.8078: real time    7.8727

 eigenvalue-minimisations  :     0
 total energy-change (2. order) :-0.2246572E-03  (-0.1064373E-03)
 number of electron     216.0000000 magnetization 
 augmentation part       -0.3561604 magnetization 

 Free energy of the ion-electron system (eV)
  ---------------------------------------------------
  alpha Z        PSCENC =        59.93625244
  Ewald energy   TEWEN  =     34385.40656134
  -Hartree energ DENC   =    -41476.12525802
  -exchange      EXHF   =         0.00000000
  -V(xc)+E(xc)   XCENC  =       385.33357579
  PAW double counting   =     78968.80383993   -78682.12084710
  entropy T*S    EENTRO =        -0.00000000
  eigenvalues    EBANDS =     -2592.43099378
  atomic energy  EATOM  =      8557.41276814
  ---------------------------------------------------
  free energy    TOTEN  =      -393.78410126 eV

  energy without entropy =     -393.78410126  energy(sigma->0) =     -393.78410126


--------------------------------------------------------------------------------------------------------




--------------------------------------- Iteration      1(  18)  ---------------------------------------


    POTLOK:  cpu time    3.1275: real time    3.1514
    SETDIJ:  cpu time    0.0636: real time    0.0638
    TRIAL :  cpu time    0.8597: real time    0.8682
    CORREC:  cpu time    3.5064: real time    3.5333
    CHARGE:  cpu time    0.1178: real time    0.1190
    --------------------------------------------
      LOOP:  cpu time    7.7273: real time    7.7978

 eigenvalue-minimisations  :     0
 total energy-change (2. order) :-0.1064446E-03  (-0.3841216E-04)
 number of electron     216.0000000 magnetization 
 augmentation part       -0.3561797 magnetization 

 Free energy of the ion-electron system (eV)
  ---------------------------------------------------
  alpha Z        PSCENC =        59.93625244
  Ewald energy   TEWEN  =     34385.40656134
  -Hartree energ DENC   =    -41476.18517133
  -exchange      EXHF   =         0.00000000
  -V(xc)+E(xc)   XCENC  =       385.33538325
  PAW double counting   =     78954.17680800   -78667.49129159
  entropy T*S    EENTRO =        -0.00000000
  eigenvalues    EBANDS =     -2592.37551796
  atomic energy  EATOM  =      8557.41276814
  ---------------------------------------------------
  free energy    TOTEN  =      -393.78420770 eV

  energy without entropy =     -393.78420770  energy(sigma->0) =     -393.78420770


--------------------------------------------------------------------------------------------------------




--------------------------------------- Iteration      1(  19)  ---------------------------------------


    POTLOK:  cpu time    3.1259: real time    3.1502
    SETDIJ:  cpu time    0.0633: real time    0.0635
    TRIAL :  cpu time    0.8596: real time    0.8679
    CORREC:  cpu time    3.4891: real time    3.5172
    CHARGE:  cpu time    0.1177: real time    0.1189
    --------------------------------------------
      LOOP:  cpu time    7.7245: real time    7.8131

 eigenvalue-minimisations  :     0
 total energy-change (2. order) :-0.3855472E-04  (-0.1423415E-04)
 number of electron     216.0000000 magnetization 
 augmentation part       -0.3561965 magnetization 

 Free energy of the ion-electron system (eV)
  ---------------------------------------------------
  alpha Z        PSCENC =        59.93625244
  Ewald energy   TEWEN  =     34385.40656134
  -Hartree energ DENC   =    -41476.23954720
  -exchange      EXHF   =         0.00000000
  -V(xc)+E(xc)   XCENC  =       385.33711081
  PAW double counting   =     78964.11993249   -78677.43282875
  entropy T*S    EENTRO =        -0.00000000
  eigenvalues    EBANDS =     -2592.32449554
  atomic energy  EATOM  =      8557.41276814
  ---------------------------------------------------
  free energy    TOTEN  =      -393.78424626 eV

  energy without entropy =     -393.78424626  energy(sigma->0) =     -393.78424626


--------------------------------------------------------------------------------------------------------




--------------------------------------- Iteration      1(  20)  ---------------------------------------


    POTLOK:  cpu time    3.1514: real time    3.1746
    SETDIJ:  cpu time    0.0648: real time    0.0651
    TRIAL :  cpu time    0.8589: real time    0.8675
    CORREC:  cpu time    3.5150: real time    3.5424
    CHARGE:  cpu time    0.1165: real time    0.1177
    --------------------------------------------
      LOOP:  cpu time    7.7705: real time    7.8393

 eigenvalue-minimisations  :     0
 total energy-change (2. order) :-0.1433307E-04  (-0.5701410E-05)
 number of electron     216.0000000 magnetization 
 augmentation part       -0.3561729 magnetization 

 Free energy of the ion-electron system (eV)
  ---------------------------------------------------
  alpha Z        PSCENC =        59.93625244
  Ewald energy   TEWEN  =     34385.40656134
  -Hartree energ DENC   =    -41476.21605879
  -exchange      EXHF   =         0.00000000
  -V(xc)+E(xc)   XCENC  =       385.33646220
  PAW double counting   =     78977.63477182   -78690.94695597
  entropy T*S    EENTRO =        -0.00000000
  eigenvalues    EBANDS =     -2592.34806178
  atomic energy  EATOM  =      8557.41276814
  ---------------------------------------------------
  free energy    TOTEN  =      -393.78426059 eV

  energy without entropy =     -393.78426059  energy(sigma->0) =     -393.78426059


--------------------------------------------------------------------------------------------------------




--------------------------------------- Iteration      1(  21)  ---------------------------------------


    POTLOK:  cpu time    3.1354: real time    3.1587
    SETDIJ:  cpu time    0.0650: real time    0.0652
    TRIAL :  cpu time    0.8608: real time    0.8690
    CORREC:  cpu time    3.5023: real time    3.5292
    CHARGE:  cpu time    0.1187: real time    0.1199
    --------------------------------------------
      LOOP:  cpu time    7.7565: real time    7.8241

 eigenvalue-minimisations  :     0
 total energy-change (2. order) :-0.5695256E-05  (-0.2778998E-05)
 number of electron     216.0000000 magnetization 
 augmentation part       -0.3561642 magnetization 

 Free energy of the ion-electron system (eV)
  ---------------------------------------------------
  alpha Z        PSCENC =        59.93625244
  Ewald energy   TEWEN  =     34385.40656134
  -Hartree energ DENC   =    -41476.21948030
  -exchange      EXHF   =         0.00000000
  -V(xc)+E(xc)   XCENC  =       385.33697896
  PAW double counting   =     78984.94566913   -78698.25819551
  entropy T*S    EENTRO =        -0.00000000
  eigenvalues    EBANDS =     -2592.34482049
  atomic energy  EATOM  =      8557.41276814
  ---------------------------------------------------
  free energy    TOTEN  =      -393.78426628 eV

  energy without entropy =     -393.78426628  energy(sigma->0) =     -393.78426628


--------------------------------------------------------------------------------------------------------




--------------------------------------- Iteration      1(  22)  ---------------------------------------


    POTLOK:  cpu time    3.1783: real time    3.2015
    SETDIJ:  cpu time    0.0650: real time    0.0652
    TRIAL :  cpu time    0.8601: real time    0.8684
    CORREC:  cpu time    3.4964: real time    3.5233
    CHARGE:  cpu time    0.1174: real time    0.1187
    --------------------------------------------
      LOOP:  cpu time    7.7864: real time    7.8501

 eigenvalue-minimisations  :     0
 total energy-change (2. order) :-0.2701432E-05  (-0.1043601E-05)
 number of electron     216.0000000 magnetization 
 augmentation part       -0.3561535 magnetization 

 Free energy of the ion-electron system (eV)
  ---------------------------------------------------
  alpha Z        PSCENC =        59.93625244
  Ewald energy   TEWEN  =     34385.40656134
  -Hartree energ DENC   =    -41476.20237240
  -exchange      EXHF   =         0.00000000
  -V(xc)+E(xc)   XCENC  =       385.33630956
  PAW double counting   =     78986.64611526   -78699.95881181
  entropy T*S    EENTRO =        -0.00000000
  eigenvalues    EBANDS =     -2592.36109154
  atomic energy  EATOM  =      8557.41276814
  ---------------------------------------------------
  free energy    TOTEN  =      -393.78426899 eV

  energy without entropy =     -393.78426899  energy(sigma->0) =     -393.78426899


--------------------------------------------------------------------------------------------------------




--------------------------------------- Iteration      1(  23)  ---------------------------------------


    POTLOK:  cpu time    3.1401: real time    3.1634
    SETDIJ:  cpu time    0.0658: real time    0.0660
    TRIAL :  cpu time    0.8595: real time    0.8677
    CORREC:  cpu time    3.5106: real time    3.5394
    CHARGE:  cpu time    0.1167: real time    0.1180
    --------------------------------------------
      LOOP:  cpu time    7.7313: real time    7.7946

 eigenvalue-minimisations  :     0
 total energy-change (2. order) :-0.1046617E-05  (-0.4450288E-06)
 number of electron     216.0000000 magnetization 
 augmentation part       -0.3561561 magnetization 

 Free energy of the ion-electron system (eV)
  ---------------------------------------------------
  alpha Z        PSCENC =        59.93625244
  Ewald energy   TEWEN  =     34385.40656134
  -Hartree energ DENC   =    -41476.19951424
  -exchange      EXHF   =         0.00000000
  -V(xc)+E(xc)   XCENC  =       385.33638955
  PAW double counting   =     78985.83707699   -78699.14991411
  entropy T*S    EENTRO =        -0.00000000
  eigenvalues    EBANDS =     -2592.36389015
  atomic energy  EATOM  =      8557.41276814
  ---------------------------------------------------
  free energy    TOTEN  =      -393.78427003 eV

  energy without entropy =     -393.78427003  energy(sigma->0) =     -393.78427003


--------------------------------------------------------------------------------------------------------




--------------------------------------- Iteration      1(  24)  ---------------------------------------


    POTLOK:  cpu time    3.1333: real time    3.1568
    SETDIJ:  cpu time    0.0656: real time    0.0658
    TRIAL :  cpu time    0.8601: real time    0.8689
    CORREC:  cpu time    3.5256: real time    3.5541
    CHARGE:  cpu time    0.1180: real time    0.1192
    --------------------------------------------
      LOOP:  cpu time    7.7986: real time    7.8621

 eigenvalue-minimisations  :     0
 total energy-change (2. order) :-0.4487520E-06  (-0.2143013E-06)
 number of electron     216.0000000 magnetization 
 augmentation part       -0.3561617 magnetization 

 Free energy of the ion-electron system (eV)
  ---------------------------------------------------
  alpha Z        PSCENC =        59.93625244
  Ewald energy   TEWEN  =     34385.40656134
  -Hartree energ DENC   =    -41476.19305022
  -exchange      EXHF   =         0.00000000
  -V(xc)+E(xc)   XCENC  =       385.33619418
  PAW double counting   =     78984.72150969   -78698.03429513
  entropy T*S    EENTRO =        -0.00000000
  eigenvalues    EBANDS =     -2592.37021093
  atomic energy  EATOM  =      8557.41276814
  ---------------------------------------------------
  free energy    TOTEN  =      -393.78427048 eV

  energy without entropy =     -393.78427048  energy(sigma->0) =     -393.78427048


--------------------------------------------------------------------------------------------------------




--------------------------------------- Iteration      1(  25)  ---------------------------------------


    POTLOK:  cpu time    3.1627: real time    3.1878
    SETDIJ:  cpu time    0.0654: real time    0.0656
    TRIAL :  cpu time    0.8793: real time    0.8879
    CORREC:  cpu time    3.4976: real time    3.5250
    CHARGE:  cpu time    0.1175: real time    0.1187
    --------------------------------------------
      LOOP:  cpu time    7.8172: real time    7.8803

 eigenvalue-minimisations  :     0
 total energy-change (2. order) :-0.2091110E-06  (-0.1242640E-06)
 number of electron     216.0000000 magnetization 
 augmentation part       -0.3561662 magnetization 

 Free energy of the ion-electron system (eV)
  ---------------------------------------------------
  alpha Z        PSCENC =        59.93625244
  Ewald energy   TEWEN  =     34385.40656134
  -Hartree energ DENC   =    -41476.19253186
  -exchange      EXHF   =         0.00000000
  -V(xc)+E(xc)   XCENC  =       385.33617317
  PAW double counting   =     78983.86284311   -78697.17559325
  entropy T*S    EENTRO =        -0.00000000
  eigenvalues    EBANDS =     -2592.37074379
  atomic energy  EATOM  =      8557.41276814
  ---------------------------------------------------
  free energy    TOTEN  =      -393.78427069 eV

  energy without entropy =     -393.78427069  energy(sigma->0) =     -393.78427069


--------------------------------------------------------------------------------------------------------




--------------------------------------- Iteration      1(  26)  ---------------------------------------


    POTLOK:  cpu time    3.1472: real time    3.1706
    SETDIJ:  cpu time    0.0651: real time    0.0653
    TRIAL :  cpu time    0.8632: real time    0.8719
    CORREC:  cpu time    3.4997: real time    3.5269
    EDDIAG:  cpu time    0.3244: real time    0.3283
    CHARGE:  cpu time    0.1168: real time    0.1180
    --------------------------------------------
      LOOP:  cpu time    8.0851: real time    8.1541

 eigenvalue-minimisations  :     0
 total energy-change (2. order) :-0.9629002E-07  (-0.5645176E-07)
 number of electron     216.0000000 magnetization 
 augmentation part       -0.3561723 magnetization 

 Free energy of the ion-electron system (eV)
  ---------------------------------------------------
  alpha Z        PSCENC =        59.93625244
  Ewald energy   TEWEN  =     34385.40656134
  -Hartree energ DENC   =    -41476.19654116
  -exchange      EXHF   =         0.00000000
  -V(xc)+E(xc)   XCENC  =       385.33636804
  PAW double counting   =     78983.30229029   -78696.61507677
  entropy T*S    EENTRO =        -0.00000000
  eigenvalues    EBANDS =     -2592.36689311
  atomic energy  EATOM  =      8557.41276814
  ---------------------------------------------------
  free energy    TOTEN  =      -393.78427079 eV

  energy without entropy =     -393.78427079  energy(sigma->0) =     -393.78427079


--------------------------------------------------------------------------------------------------------


  average scaling for gradient   0.8461


 average (electrostatic) potential at core
  the test charge radii are     0.5770  0.5955
  (the norm of the test charge is              1.0000)
       1 -86.4445       2 -86.4391       3 -86.4510       4 -86.4555       5 -86.4357
       6 -86.4322       7 -86.4428       8 -86.4252       9 -86.4344      10 -86.4348
      11 -86.4351      12 -86.4398      13 -86.4320      14 -86.4331      15 -86.4327
      16 -86.4324      17 -86.4384      18 -86.4405      19 -86.4437      20 -86.4385
      21 -86.4273      22 -86.4301      23 -86.4491      24 -86.4491      25 -86.4342
      26 -86.4365      27 -86.4347      28 -86.4473      29 -86.4319      30 -86.4341
      31 -86.4551      32 -86.4468      33 -86.4409      34 -86.4360      35 -86.4342
      36 -86.4372      37 -86.4394      38 -86.4425      39 -86.4425      40 -86.4403
      41 -86.4411      42 -86.4444      43 -86.4379      44 -86.4444      45 -86.4336
      46 -86.4324      47 -86.4388      48 -86.4358      49 -86.4412      50 -86.4392
      51 -90.7049      52-120.4716      53-120.4736
 
 
 
 E-fermi :  -4.0173     XC(G=0):  -2.7168     alpha+bet : -2.1113

 Fermi energy:        -4.0172551245

 k-point     1 :       0.0000    0.0000    0.0000
  band No.  band energies     occupation 
      1     -27.5448      2.00000
      2     -26.5935      2.00000
      3     -22.0501      2.00000
      4     -21.1328      2.00000
      5     -21.1270      2.00000
      6     -21.1206      2.00000
      7     -21.1204      2.00000
      8     -21.1175      2.00000
      9     -21.1152      2.00000
     10     -19.3123      2.00000
     11     -19.3107      2.00000
     12     -19.3058      2.00000
     13     -19.3050      2.00000
     14     -19.3036      2.00000
     15     -19.3033      2.00000
     16     -18.4299      2.00000
     17     -18.4285      2.00000
     18     -18.4268      2.00000
     19     -18.4248      2.00000
     20     -18.4241      2.00000
     21     -18.4237      2.00000
     22     -16.3346      2.00000
     23     -16.3333      2.00000
     24     -16.3307      2.00000
     25     -16.3302      2.00000
     26     -16.3266      2.00000
     27     -16.3261      2.00000
     28     -15.2892      2.00000
     29     -15.2884      2.00000
     30     -15.2854      2.00000
     31     -15.2846      2.00000
     32     -15.2837      2.00000
     33     -15.2833      2.00000
     34     -13.9751      2.00000
     35     -13.9747      2.00000
     36     -13.9740      2.00000
     37     -13.9726      2.00000
     38     -13.9724      2.00000
     39     -13.9718      2.00000
     40     -12.4423      2.00000
     41     -11.6787      2.00000
     42     -11.6782      2.00000
     43     -11.6758      2.00000
     44     -11.6756      2.00000
     45     -11.6754      2.00000
     46     -11.6751      2.00000
     47     -11.5117      2.00000
     48     -11.5106      2.00000
     49     -11.5090      2.00000
     50     -11.5086      2.00000
     51     -11.5057      2.00000
     52     -11.5054      2.00000
     53     -11.3331      2.00000
     54     -11.2225      2.00000
     55     -11.1600      2.00000
     56     -10.2056      2.00000
     57     -10.1578      2.00000
     58     -10.1577      2.00000
     59     -10.1569      2.00000
     60     -10.1565      2.00000
     61     -10.1555      2.00000
     62     -10.1552      2.00000
     63      -9.1222      2.00000
     64      -9.1168      2.00000
     65      -9.1150      2.00000
     66      -9.1109      2.00000
     67      -9.1102      2.00000
     68      -9.0879      2.00000
     69      -8.9785      2.00000
     70      -8.9751      2.00000
     71      -8.9744      2.00000
     72      -8.9737      2.00000
     73      -8.9730      2.00000
     74      -8.9714      2.00000
     75      -8.9209      2.00000
     76      -8.9202      2.00000
     77      -8.9199      2.00000
     78      -8.9177      2.00000
     79      -8.9172      2.00000
     80      -8.9159      2.00000
     81      -7.7036      2.00000
     82      -7.6709      2.00000
     83      -7.3666      2.00000
     84      -7.3663      2.00000
     85      -7.3652      2.00000
     86      -7.3636      2.00000
     87      -7.3612      2.00000
     88      -7.3611      2.00000
     89      -7.0074      2.00000
     90      -7.0031      2.00000
     91      -6.9949      2.00000
     92      -6.9942      2.00000
     93      -6.9922      2.00000
     94      -6.9518      2.00000
     95      -6.1182      2.00000
     96      -6.1152      2.00000
     97      -6.1103      2.00000
     98      -6.1062      2.00000
     99      -6.1034      2.00000
    100      -6.0871      2.00000
    101      -5.9416      2.00000
    102      -5.9393      2.00000
    103      -4.1537      2.00000
    104      -4.1497      2.00000
    105      -4.1460      2.00000
    106      -4.1439      2.00000
    107      -4.1384      2.00000
    108      -4.1378      2.00000
    109      -1.3714      0.00000
    110      -1.3690      0.00000
    111      -1.3587      0.00000
    112      -1.3566      0.00000
    113      -1.3543      0.00000
    114      -1.3522      0.00000
    115      -0.1816      0.00000
    116       0.4674      0.00000
    117       0.4726      0.00000
    118       0.4801      0.00000
    119       0.4895      0.00000
    120       0.4915      0.00000
    121       0.4935      0.00000
    122       0.5361      0.00000
    123       0.7670      0.00000
    124       0.8644      0.00000
    125       1.0985      0.00000
    126       1.1879      0.00000
    127       1.2552      0.00000
    128       1.2665      0.00000
    129       1.2801      0.00000
    130       1.3245      0.00000
    131       1.5583      0.00000
    132       1.8738      0.00000
    133       2.0921      0.00000
    134       2.1960      0.00000
    135       2.2025      0.00000
    136       2.2187      0.00000


--------------------------------------------------------------------------------------------------------


 soft charge-density along one line, spin component           1
         0         1         2         3         4         5         6         7         8         9
 total charge-density along one line
 
 pseudopotential strength for first ion, spin component:           1
 12.607  21.216  -0.000   0.000   0.000  -0.000   0.000   0.000
 21.216  35.705  -0.000   0.000   0.000  -0.000   0.000   0.000
 -0.000  -0.000  -3.322  -0.000   0.000  -5.953  -0.000   0.000
  0.000   0.000  -0.000  -3.357  -0.000  -0.000  -6.015  -0.000
  0.000   0.000   0.000  -0.000  -3.322   0.000  -0.000  -5.953
 -0.000  -0.000  -5.953  -0.000   0.000 -10.646  -0.000   0.000
  0.000   0.000  -0.000  -6.015  -0.000  -0.000 -10.756  -0.000
  0.000   0.000   0.000  -0.000  -5.953   0.000  -0.000 -10.646
 total augmentation occupancy for first ion, spin component:           1
  6.241  -2.004  -0.000  -0.002   0.000   0.000   0.001  -0.000
 -2.004   0.691   0.000   0.001  -0.000  -0.000  -0.000   0.000
 -0.000   0.000   5.992  -0.007   0.000  -1.878   0.003  -0.000
 -0.002   0.001  -0.007   2.310  -0.000   0.003  -0.483   0.000
  0.000  -0.000   0.000  -0.000   5.991  -0.000   0.000  -1.878
  0.000  -0.000  -1.878   0.003  -0.000   0.606  -0.001   0.000
  0.001  -0.000   0.003  -0.483   0.000  -0.001   0.111  -0.000
 -0.000   0.000  -0.000   0.000  -1.878   0.000  -0.000   0.606


------------------------ aborting loop because EDIFF is reached ----------------------------------------


    FORLOC:  cpu time    0.0518: real time    0.0523
    FORNL :  cpu time    0.6762: real time    0.6798
    FORCOR:  cpu time    3.2423: real time    3.2662
    OFIELD:  cpu time    0.0014: real time    0.0014

 VOLUME and BASIS-vectors are now :
 -----------------------------------------------------------------------------
  energy-cutoff  :     1000.00
  volume of cell :     2631.08
      direct lattice vectors                 reciprocal lattice vectors
    12.325000000  0.000000000  0.000000000     0.081135903  0.046843835  0.000000000
    -6.162500000 10.673763102  0.000000000     0.000000000  0.093687670  0.000000000
     0.000000000  0.000000000 20.000000000     0.000000000  0.000000000  0.050000000

  length of vectors
    12.325000000 12.325000000 20.000000000     0.093687670  0.093687670  0.050000000


 FORCES acting on ions:
    Electron-Ion                     Ewald-Force                    Non-Local-Force
 -----------------------------------------------------------------------------------------------
   0.112E+02 0.983E+01 0.227E+02   -.112E+02 -.983E+01 -.227E+02   0.148E-01 -.633E-02 0.135E-01
   0.184E+02 0.915E+01 0.305E+02   -.185E+02 -.913E+01 -.305E+02   0.202E-01 -.144E-01 -.477E-02
   0.915E+01 0.233E+02 0.384E+02   -.914E+01 -.234E+02 -.385E+02   -.212E-02 0.472E-01 0.414E-01
   0.146E+02 0.214E+02 0.633E+02   -.147E+02 -.215E+02 -.633E+02   0.558E-01 0.209E-01 0.794E-01
   0.122E+02 0.289E+01 0.228E+02   -.122E+02 -.288E+01 -.228E+02   0.398E-02 -.177E-01 -.352E-02
   0.128E+02 -.218E+01 0.234E+02   -.128E+02 0.219E+01 -.233E+02   -.217E-01 -.475E-02 -.128E-01
   0.250E+02 0.102E+02 0.539E+02   -.250E+02 -.101E+02 -.539E+02   0.549E-01 -.679E-01 -.142E-01
   0.247E+02 -.834E+01 0.575E+02   -.247E+02 0.838E+01 -.574E+02   0.423E-02 -.329E-01 -.117E+00
   -.101E+02 0.216E+02 0.396E+02   0.102E+02 -.216E+02 -.396E+02   -.231E-01 -.971E-02 -.355E-01
   -.186E+02 0.159E+02 0.614E+02   0.187E+02 -.160E+02 -.614E+02   -.722E-01 0.411E-01 -.975E-01
   0.299E+01 -.264E+01 0.179E+02   -.298E+01 0.263E+01 -.179E+02   -.608E-02 0.475E-02 -.560E-02
   0.238E+01 -.193E+01 0.165E+02   -.237E+01 0.193E+01 -.165E+02   -.159E-01 0.693E-02 0.175E-02
   0.947E+01 -.227E+02 0.661E+02   -.957E+01 0.228E+02 -.660E+02   0.938E-01 -.226E-01 -.113E+00
   0.435E+01 -.236E+02 0.392E+02   -.438E+01 0.236E+02 -.392E+02   0.285E-01 0.435E-02 -.365E-01
   -.109E+02 0.686E+01 0.223E+02   0.109E+02 -.685E+01 -.223E+02   0.157E-01 -.853E-02 -.547E-02
   -.162E+02 0.457E+01 0.265E+02   0.162E+02 -.457E+01 -.265E+02   -.500E-05 0.101E-01 -.233E-01
   -.162E+01 -.666E+00 0.158E+02   0.163E+01 0.663E+00 -.158E+02   -.600E-02 0.351E-03 0.112E-02
   0.899E+00 0.599E+01 0.170E+02   -.893E+00 -.599E+01 -.170E+02   -.930E-02 0.425E-02 0.890E-02
   -.335E+01 -.193E+02 0.290E+02   0.332E+01 0.194E+02 -.290E+02   0.304E-01 -.656E-02 0.129E-01
   -.142E+01 -.929E+01 0.191E+02   0.141E+01 0.930E+01 -.191E+02   0.605E-02 -.623E-02 -.172E-02
   0.192E+02 -.835E+01 0.332E+02   -.192E+02 0.835E+01 -.332E+02   -.927E-02 -.384E-02 -.474E-01
   0.113E+02 -.979E+01 0.253E+02   -.113E+02 0.978E+01 -.252E+02   -.139E-01 0.183E-01 -.147E-01
   -.469E+01 0.106E+02 0.820E+02   0.477E+01 -.106E+02 -.821E+02   -.743E-01 0.562E-01 0.271E-01
   -.830E+01 -.168E+02 0.772E+02   0.825E+01 0.169E+02 -.773E+02   0.529E-01 -.687E-01 0.389E-01
   0.522E+01 -.231E+01 0.181E+02   -.520E+01 0.230E+01 -.181E+02   -.116E-01 0.241E-02 -.998E-02
   0.963E+00 0.468E+01 0.183E+02   -.954E+00 -.468E+01 -.183E+02   -.137E-01 0.647E-02 -.107E-02
   -.249E+02 0.287E+01 0.442E+02   0.249E+02 -.291E+01 -.442E+02   -.184E-02 0.329E-01 -.413E-01
   -.227E+02 -.973E+01 0.394E+02   0.227E+02 0.969E+01 -.394E+02   -.410E-01 0.351E-01 0.197E-01
   0.690E+01 -.141E+02 0.266E+02   -.691E+01 0.141E+02 -.266E+02   0.106E-01 0.101E-01 -.191E-01
   0.642E+00 -.520E+01 0.194E+02   -.654E+00 0.519E+01 -.194E+02   0.294E-02 0.101E-01 -.942E-02
   -.185E+02 -.200E+02 0.496E+02   0.186E+02 0.200E+02 -.497E+02   -.458E-01 -.291E-01 0.650E-01
   -.104E+02 -.190E+02 0.313E+02   0.104E+02 0.190E+02 -.313E+02   -.654E-03 -.290E-01 0.265E-01
   0.608E+00 0.250E+01 0.164E+02   -.614E+00 -.250E+01 -.164E+02   0.123E-01 -.882E-02 0.389E-02
   0.174E+01 0.253E+01 0.179E+02   -.174E+01 -.252E+01 -.179E+02   0.932E-03 -.466E-02 -.625E-02
   -.760E+01 0.938E+00 0.199E+02   0.759E+01 -.947E+00 -.199E+02   0.110E-01 0.267E-02 -.203E-02
   -.652E+01 -.260E+01 0.192E+02   0.652E+01 0.260E+01 -.192E+02   -.118E-01 0.915E-02 -.279E-02
   -.133E+02 -.695E+01 0.234E+02   0.133E+02 0.694E+01 -.234E+02   -.169E-01 0.453E-02 0.183E-02
   -.765E+01 -.621E+01 0.189E+02   0.766E+01 0.621E+01 -.189E+02   -.117E-01 0.344E-02 0.106E-01
   -.719E+01 -.941E+01 0.205E+02   0.720E+01 0.942E+01 -.205E+02   -.120E-01 -.842E-02 0.777E-02
   -.106E+01 -.223E+01 0.170E+02   0.105E+01 0.223E+01 -.170E+02   0.222E-02 -.251E-02 0.830E-02
   0.270E+01 0.645E+01 0.179E+02   -.270E+01 -.646E+01 -.179E+02   -.411E-02 0.102E-01 0.798E-02
   0.901E+01 0.141E+02 0.244E+02   -.903E+01 -.141E+02 -.245E+02   0.124E-01 0.131E-01 0.168E-01
   0.719E+00 0.115E+02 0.203E+02   -.708E+00 -.116E+02 -.203E+02   -.905E-02 0.937E-02 -.107E-02
   0.137E+00 0.218E+02 0.324E+02   -.103E+00 -.218E+02 -.324E+02   -.383E-01 0.126E-01 0.158E-01
   -.219E+01 0.436E+01 0.194E+02   0.220E+01 -.436E+01 -.194E+02   0.704E-03 -.850E-02 -.675E-02
   -.929E+01 0.118E+02 0.252E+02   0.929E+01 -.118E+02 -.252E+02   -.856E-02 -.281E-02 -.175E-01
   -.157E+01 -.441E+01 0.177E+02   0.156E+01 0.441E+01 -.177E+02   0.152E-01 -.210E-02 0.116E-02
   -.410E+01 0.167E+01 0.169E+02   0.408E+01 -.167E+01 -.169E+02   0.941E-02 -.125E-02 -.870E-02
   0.319E+00 -.274E+01 0.166E+02   -.321E+00 0.274E+01 -.166E+02   0.839E-02 -.376E-02 0.589E-02
   0.432E+01 0.317E+01 0.168E+02   -.433E+01 -.317E+01 -.168E+02   0.627E-02 0.285E-02 0.347E-02
   0.164E+00 -.111E+00 -.376E+03   -.153E+00 0.103E+00 0.376E+03   -.149E-01 0.823E-02 -.536E-02
   -.229E+03 0.155E+03 -.576E+03   0.279E+03 -.190E+03 0.579E+03   -.511E+02 0.348E+02 -.322E+01
   0.229E+03 -.156E+03 -.556E+03   -.279E+03 0.190E+03 0.553E+03   0.511E+02 -.348E+02 0.332E+01
 -----------------------------------------------------------------------------------------------
   0.386E-01 -.285E-02 0.143E+00   0.568E-13 0.568E-13 0.341E-12   -.386E-01 0.296E-02 -.146E+00
 
 
 POSITION                                       TOTAL-FORCE (eV/Angst)
 -----------------------------------------------------------------------------------
     11.98348      0.00342      0.01417         0.001578     -0.000549     -0.000073
     -0.34154      1.42665      0.01100         0.001708      0.003018      0.001196
      2.12355      0.00315      0.01249         0.001713     -0.006369      0.005581
      2.12326      1.42653      0.00641        -0.000939      0.004739     -0.003343
     10.75099      2.13819      0.01213         0.000467     -0.003827      0.002712
     -1.57382      3.56123      0.01110        -0.004873      0.006841      0.001195
      0.89078      2.13854      0.00548        -0.005234      0.004699     -0.005971
      0.89099      3.56147      0.00181        -0.005293      0.009326     -0.020947
      4.58864      0.00346      0.01135         0.007575      0.007789     -0.001171
      4.58894      1.42623      0.00646        -0.000803     -0.000202     -0.027913
      9.51854      4.27281      0.01369         0.007559     -0.007718      0.000484
     -2.80632      5.69591      0.01434        -0.008816      0.004972      0.001277
      2.12300      4.27302      0.00000        -0.005053      0.008848     -0.037002
      2.12335      5.69594      0.00581        -0.004559     -0.014025     -0.000257
      7.05344      0.00333      0.01399         0.005236     -0.002229      0.002648
      7.05353      1.42635      0.01368        -0.005210      0.005121      0.000576
      8.28610      6.40752      0.01601         0.003852     -0.002584     -0.000203
     -4.03885      7.83070      0.01636        -0.003194      0.003404      0.000357
      3.35586      6.40753      0.01007         0.002821      0.001223      0.002984
      3.35599      7.83072      0.01320        -0.002924     -0.000385      0.000316
     -0.34146      4.27290      0.00723         0.013051     -0.008911      0.000026
     -0.34138      5.69591      0.00946        -0.006598      0.003109      0.003742
      3.35624      2.13791      0.00222         0.009249     -0.003717     -0.046740
      3.35573      3.56155      0.00139        -0.004643      0.003458     -0.031951
     -1.57395      6.40758      0.01311         0.010333     -0.003591     -0.000602
     -1.57385      7.83068      0.01438        -0.004788      0.004283      0.000619
      5.82093      2.13784      0.01033        -0.002009     -0.009618     -0.004439
      5.82114      3.56097      0.01156        -0.000102     -0.000564      0.004375
      0.89092      6.40755      0.00907         0.003521     -0.000236      0.003082
      0.89106      7.83068      0.01235        -0.008922     -0.000372      0.000546
      4.58871      4.27293      0.00850         0.000098     -0.005420      0.004818
      4.58852      5.69606      0.01149         0.001199      0.009171      0.002496
      9.51845      0.00337      0.01490         0.005958     -0.005852      0.000650
      9.51855      1.42644      0.01438        -0.004398      0.009425     -0.000181
      8.28593      2.13803      0.01453         0.003144     -0.005729      0.001544
      8.28613      3.56115      0.01464        -0.004647      0.001561      0.000748
      7.05356      4.27269      0.01457         0.003205     -0.000750      0.001526
      7.05362      5.69588      0.01553        -0.002704      0.000723      0.000156
      5.82112      6.40755      0.01489        -0.000804      0.001297      0.000110
      5.82102      7.83073      0.01579         0.000143      0.002140     -0.000004
      7.05363      8.54227      0.01631        -0.001981     -0.001271      0.001348
     -5.27149      9.96549      0.01495        -0.001972     -0.002875     -0.000781
     -2.80638      8.54234      0.01558         0.002602     -0.001080      0.000108
     -2.80627      9.96553      0.01362        -0.002939     -0.000077      0.003139
     -0.34149      8.54239      0.01378         0.006207     -0.001231      0.000890
     -0.34138      9.96550      0.01354        -0.006907      0.002925      0.002723
      2.12343      8.54232      0.01336         0.006490     -0.001286      0.001118
      2.12354      9.96544      0.01469        -0.008109      0.004043     -0.001863
      4.58846      8.54235      0.01505         0.005874     -0.004697      0.001322
      4.58853      9.96550      0.01517        -0.003108      0.003955      0.000940
      3.04930      2.68154      3.14980        -0.003253      0.000458      0.026949
      4.02070      2.02068      3.21422        -0.441421      0.308681      0.010564
      2.07767      3.34267      3.09035         0.452625     -0.320042      0.090576
 -----------------------------------------------------------------------------------
    total drift:                               -0.000025      0.000115     -0.002480


--------------------------------------------------------------------------------------------------------



  FREE ENERGIE OF THE ION-ELECTRON SYSTEM (eV)
  ---------------------------------------------------
  free  energy   TOTEN  =      -393.78427079 eV

  energy  without entropy=     -393.78427079  energy(sigma->0) =     -393.78427079
 


--------------------------------------------------------------------------------------------------------


    POTLOK:  cpu time    3.2268: real time    3.2516


--------------------------------------------------------------------------------------------------------


     LOOP+:  cpu time  205.8767: real time  208.1816
    4ORBIT:  cpu time    0.0000: real time    0.0000

 total amount of memory used by VASP MPI-rank0    85439. kBytes
=======================================================================

   base      :      30000. kBytes
   nonl-proj :       6586. kBytes
   fftplans  :      14299. kBytes
   grid      :      23511. kBytes
   one-center:          6. kBytes
   wavefun   :      11037. kBytes
 
  
  
 General timing and accounting informations for this job:
 ========================================================
  
                  Total CPU time used (sec):      242.308
                            User time (sec):      221.758
                          System time (sec):       20.549
                         Elapsed time (sec):      246.447
  
                   Maximum memory used (kb):      682488.
                   Average memory used (kb):          N/A
  
                          Minor page faults:       389723
                          Major page faults:          105
                 Voluntary context switches:         3717
