 vasp.6.2.1 16May21 (build Nov 06 2021 14:46:37) complex                        
  
 executed on             LinuxIFC date 2025.03.03  18:42:37
 running on  112 total cores
 distrk:  each k-point on  112 cores,    1 groups
 distr:  one band on NCORE=  28 cores,    4 groups


--------------------------------------------------------------------------------------------------------


 INCAR:
   NPAR = 4
   ALGO = Conjugate
   ISMEAR = 0
   SIGMA = 0.01
   PREC = Accurate
   EDIFF = 1E-7
   ENCUT = 1000
   ISIF = 0
   GGA = ML
   LUSE_VDW = .TRUE.
   ZAB_VDW = -1.8867
   AGGAC = 0.0000
   LASPH = .TRUE.
   SYMPREC = 1E-7
   LWAVE = .FALSE.
   LCHARGE = .FALSE.

 POTCAR:    PAW_PBE C_h 06Feb2004                 
 POTCAR:    PAW_PBE O_h 06Feb2004                 
 -----------------------------------------------------------------------------
|                                                                             |
|           W    W    AA    RRRRR   N    N  II  N    N   GGGG   !!!           |
|           W    W   A  A   R    R  NN   N  II  NN   N  G    G  !!!           |
|           W    W  A    A  R    R  N N  N  II  N N  N  G       !!!           |
|           W WW W  AAAAAA  RRRRR   N  N N  II  N  N N  G  GGG   !            |
|           WW  WW  A    A  R   R   N   NN  II  N   NN  G    G                |
|           W    W  A    A  R    R  N    N  II  N    N   GGGG   !!!           |
|                                                                             |
|     For optimal performance we recommend to set                             |
|       NCORE = 2 up to number-of-cores-per-socket                            |
|     NCORE specifies how many cores store one orbital (NPAR=cpu/NCORE).      |
|     This setting can greatly improve the performance of VASP for DFT.       |
|     The default, NCORE=1 might be grossly inefficient on modern             |
|     multi-core architectures or massively parallel machines. Do your        |
|     own testing! More info at https://www.vasp.at/wiki/index.php/NCORE      |
|     Unfortunately you need to use the default for GW and RPA                |
|     calculations (for HF NCORE is supported but not extensively tested      |
|     yet).                                                                   |
|                                                                             |
 -----------------------------------------------------------------------------

 -----------------------------------------------------------------------------
|                                                                             |
|               ----> ADVICE to this user running VASP <----                  |
|                                                                             |
|     You have switched on vdW-DFT.                                           |
|     This routine was written and supplied by Jiri Klimes. We recommend      |
|     that you carefully read and cite the following publications:            |
|       J. Klimes, D.R. Bowler, A. Michelides                                 |
|          J. Phys.: Cond Matt. 22 022201 (2010)                              |
|       J. Klimes, D.R. Bowler, A. Michelides                                 |
|          Phys. Rev. B. 83, 195131 (2011)                                    |
|     and references therein.                                                 |
|                                                                             |
 -----------------------------------------------------------------------------

 POTCAR:    PAW_PBE C_h 06Feb2004                 
   VRHFIN =C: s2p2                                                                                  
   LEXCH  = PE                                                                                      
   EATOM  =   147.1560 eV,   10.8157 Ry                                                             
                                                                                                    
   TITEL  = PAW_PBE C_h 06Feb2004                                                                   
   LULTRA =        F    use ultrasoft PP ?                                                          
   IUNSCR =        1    unscreen: 0-lin 1-nonlin 2-no                                               
   RPACOR =    0.800    partial core radius                                                         
   POMASS =   12.011; ZVAL   =    4.000    mass and valenz                                          
   RCORE  =    1.100    outmost cutoff radius                                                       
   RWIGS  =    1.630; RWIGS  =    0.863    wigner-seitz radius (au A)                               
   ENMAX  =  700.000; ENMIN  =  500.000 eV                                                          
   ICORE  =        2    local potential                                                             
   LCOR   =        T    correct aug charges                                                         
   LPAW   =        T    paw PP                                                                      
   EAUG   =  946.768                                                                                
   DEXC   =    0.000                                                                                
   RMAX   =    1.128    core radius for proj-oper                                                   
   RAUG   =    1.300    factor for augmentation sphere                                              
   RDEP   =    1.162    radius for radial grids                                                     
   RDEPT  =    1.088    core radius for aug-charge                                                  
                                                                                                    
   Atomic configuration                                                                             
    4 entries                                                                                       
     n  l   j            E        occ.                                                              
     1  0  0.50      -273.3789   2.0000                                                             
     2  0  0.50       -13.7508   2.0000                                                             
     2  1  0.50        -5.2854   2.0000                                                             
     3  2  1.50        -5.4423   0.0000                                                             
   Description                                                                                      
     l       E           TYP  RCUT    TYP  RCUT                                                     
     0    -13.7508458     23  1.100                                                                 
     0     -8.2022199     23  1.100                                                                 
     1     -5.2854383     23  1.100                                                                 
     1      1.1560700     23  1.100                                                                 
     2     -5.4423304      7  1.100                                                                 
  local pseudopotential read in
  partial core-charges read in
  partial kinetic energy density read in
  atomic valenz-charges read in
  non local Contribution for L=           0  read in
    real space projection operators read in
  non local Contribution for L=           0  read in
    real space projection operators read in
  non local Contribution for L=           1  read in
    real space projection operators read in
  non local Contribution for L=           1  read in
    real space projection operators read in
    PAW grid and wavefunctions read in
 
   number of l-projection  operators is LMAX  =           4
   number of lm-projection operators is LMMAX =           8
 
 POTCAR:    PAW_PBE O_h 06Feb2004                 
   VRHFIN =O: s2p4                                                                                  
   LEXCH  = PE                                                                                      
   EATOM  =   432.3788 eV,   31.7789 Ry                                                             
                                                                                                    
   TITEL  = PAW_PBE O_h 06Feb2004                                                                   
   LULTRA =        F    use ultrasoft PP ?                                                          
   IUNSCR =        1    unscreen: 0-lin 1-nonlin 2-no                                               
   RPACOR =    0.800    partial core radius                                                         
   POMASS =   16.000; ZVAL   =    6.000    mass and valenz                                          
   RCORE  =    1.100    outmost cutoff radius                                                       
   RWIGS  =    1.400; RWIGS  =    0.741    wigner-seitz radius (au A)                               
   ENMAX  =  700.000; ENMIN  =  500.000 eV                                                          
   ICORE  =        2    local potential                                                             
   LCOR   =        T    correct aug charges                                                         
   LPAW   =        T    paw PP                                                                      
   EAUG   =  888.804                                                                                
   DEXC   =    0.000                                                                                
   RMAX   =    1.128    core radius for proj-oper                                                   
   RAUG   =    1.300    factor for augmentation sphere                                              
   RDEP   =    1.125    radius for radial grids                                                     
   RDEPT  =    1.088    core radius for aug-charge                                                  
                                                                                                    
   Atomic configuration                                                                             
    4 entries                                                                                       
     n  l   j            E        occ.                                                              
     1  0  0.50      -514.6923   2.0000                                                             
     2  0  0.50       -23.9615   2.0000                                                             
     2  1  0.50        -9.0305   4.0000                                                             
     3  2  1.50        -9.5241   0.0000                                                             
   Description                                                                                      
     l       E           TYP  RCUT    TYP  RCUT                                                     
     0    -23.9615319     23  1.100                                                                 
     0    -25.3221145     23  1.100                                                                 
     1     -9.0304911     23  1.100                                                                 
     1     -5.4802209     23  1.100                                                                 
     2     -9.5240782      7  1.100                                                                 
  local pseudopotential read in
  partial core-charges read in
  partial kinetic energy density read in
  atomic valenz-charges read in
  non local Contribution for L=           0  read in
    real space projection operators read in
  non local Contribution for L=           0  read in
    real space projection operators read in
  non local Contribution for L=           1  read in
    real space projection operators read in
  non local Contribution for L=           1  read in
    real space projection operators read in
    PAW grid and wavefunctions read in
 
   number of l-projection  operators is LMAX  =           4
   number of lm-projection operators is LMMAX =           8
 
 -----------------------------------------------------------------------------
|                                                                             |
|               ----> ADVICE to this user running VASP <----                  |
|                                                                             |
|     You have a (more or less) 'large supercell' and for larger cells it     |
|     might be more efficient to use real-space projection operators.         |
|     Therefore, try LREAL= Auto in the INCAR file.                           |
|     Mind: For very accurate calculation, you might also keep the            |
|     reciprocal projection scheme (i.e. LREAL=.FALSE.).                      |
|                                                                             |
 -----------------------------------------------------------------------------

 -----------------------------------------------------------------------------
|                                                                             |
|               ----> ADVICE to this user running VASP <----                  |
|                                                                             |
|     You enforced a specific xc type in the INCAR file but a different       |
|     type was found in the POTCAR file.                                      |
|     I HOPE YOU KNOW WHAT YOU ARE DOING!                                     |
|                                                                             |
 -----------------------------------------------------------------------------

  PAW_PBE C_h 06Feb2004                 :
 energy of atom  1       EATOM= -147.1560
 kinetic energy error for atom=    0.0031 (will be added to EATOM!!)
  PAW_PBE O_h 06Feb2004                 :
 energy of atom  2       EATOM= -432.3788
 kinetic energy error for atom=    0.0171 (will be added to EATOM!!)
 
 
 POSCAR:  C  O
  positions in cartesian coordinates
  No initial velocities read in
 exchange correlation table for  LEXCH =       44
   RHO(1)=    0.500       N(1)  =     2000
   RHO(2)=  100.500       N(2)  =     4000
 


--------------------------------------------------------------------------------------------------------


 ion  position               nearest neighbor table
   1  0.972  0.000  0.001-  50 1.42   2 1.42  42 1.42
   2  0.039  0.134  0.001-   5 1.42   7 1.42   1 1.42
   3  0.172  0.000  0.001-  42 1.42  44 1.42   4 1.42
   4  0.239  0.134  0.000-   7 1.42   3 1.42  23 1.42
   5  0.972  0.200  0.001-   6 1.42   2 1.42  34 1.42
   6  0.039  0.334  0.001-   5 1.42  21 1.42  11 1.42
   7  0.172  0.200  0.000-   8 1.42   2 1.42   4 1.42
   8  0.239  0.334  0.000-  13 1.42   7 1.42  21 1.42
   9  0.372  0.000  0.001-  10 1.42  44 1.42  46 1.42
  10  0.439  0.134  0.000-  27 1.42   9 1.42  23 1.42
  11  0.972  0.400  0.001-  12 1.42  36 1.42   6 1.42
  12  0.039  0.534  0.001-  25 1.42  11 1.42  17 1.42
  13  0.372  0.400  0.000-   8 1.42  14 1.42  24 1.42
  14  0.439  0.534  0.000-  13 1.42  29 1.42  19 1.42
  15  0.572  0.000  0.001-  46 1.42  16 1.42  48 1.42
  16  0.639  0.134  0.001-  15 1.42  35 1.42  27 1.42
  17  0.972  0.600  0.001-  38 1.42  18 1.42  12 1.42
  18  0.039  0.734  0.001-  43 1.42  41 1.42  17 1.42
  19  0.572  0.600  0.001-  14 1.42  20 1.42  32 1.42
  20  0.639  0.734  0.001-  49 1.42  19 1.42  47 1.42
  21  0.172  0.400  0.000-  22 1.42   8 1.42   6 1.42
  22  0.239  0.534  0.000-  21 1.42  29 1.42  25 1.42
  23  0.372  0.200  0.000-  10 1.42   4 1.42  24 1.42
  24  0.439  0.334  0.000-  13 1.42  31 1.42  23 1.42
  25  0.172  0.600  0.001-  26 1.42  12 1.42  22 1.42
  26  0.239  0.734  0.001-  25 1.42  45 1.42  43 1.42
  27  0.572  0.200  0.001-  10 1.42  28 1.42  16 1.42
  28  0.639  0.334  0.001-  27 1.42  37 1.42  31 1.42
  29  0.372  0.600  0.000-  22 1.42  14 1.42  30 1.42
  30  0.439  0.734  0.001-  47 1.42  29 1.42  45 1.42
  31  0.572  0.400  0.000-  32 1.42  28 1.42  24 1.42
  32  0.639  0.534  0.001-  31 1.42  39 1.42  19 1.42
  33  0.772  0.000  0.001-  34 1.42  48 1.42  50 1.42
  34  0.839  0.134  0.001-  33 1.42   5 1.42  35 1.42
  35  0.772  0.200  0.001-  36 1.42  16 1.42  34 1.42
  36  0.839  0.334  0.001-  35 1.42  11 1.42  37 1.42
  37  0.772  0.400  0.001-  28 1.42  38 1.42  36 1.42
  38  0.839  0.534  0.001-  17 1.42  37 1.42  39 1.42
  39  0.772  0.600  0.001-  40 1.42  38 1.42  32 1.42
  40  0.839  0.734  0.001-  39 1.42  49 1.42  41 1.42
  41  0.972  0.800  0.001-  18 1.42  42 1.42  40 1.42
  42  0.039  0.934  0.001-   3 1.42  41 1.42   1 1.42
  43  0.172  0.800  0.001-  18 1.42  44 1.42  26 1.42
  44  0.239  0.934  0.001-   9 1.42  43 1.42   3 1.42
  45  0.372  0.800  0.001-  26 1.42  46 1.42  30 1.42
  46  0.439  0.934  0.001-  15 1.42  45 1.42   9 1.42
  47  0.572  0.800  0.001-  30 1.42  48 1.42  20 1.42
  48  0.639  0.934  0.001-  47 1.42  33 1.42  15 1.42
  49  0.772  0.800  0.001-  50 1.42  20 1.42  40 1.42
  50  0.839  0.934  0.001-  49 1.42   1 1.42  33 1.42
  51  0.373  0.251  0.265-  52 1.18  53 1.18
  52  0.421  0.189  0.268-  51 1.18
  53  0.325  0.313  0.262-  51 1.18
 
  LATTYP: Found a hexagonal cell.
 ALAT       =    12.3250000000
 C/A-ratio  =     1.6227180527
  
  Lattice vectors:
  
 A1 = (  12.3250000000,   0.0000000000,   0.0000000000)
 A2 = (  -6.1625000000,  10.6737631016,   0.0000000000)
 A3 = (   0.0000000000,   0.0000000000,  20.0000000000)


Analysis of symmetry for initial positions (statically):
=====================================================================
 Subroutine PRICEL returns:
 Original cell was already a primitive cell.
 

 Routine SETGRP: Setting up the symmetry group for a 
 hexagonal supercell.


 Subroutine GETGRP returns: Found  1 space group operations
 (whereof  1 operations were pure point group operations)
 out of a pool of 24 trial point group operations.


The static configuration has the point symmetry C_1 .


Analysis of symmetry for dynamics (positions and initial velocities):
=====================================================================
 Subroutine PRICEL returns:
 Original cell was already a primitive cell.
 

 Routine SETGRP: Setting up the symmetry group for a 
 hexagonal supercell.


 Subroutine GETGRP returns: Found  1 space group operations
 (whereof  1 operations were pure point group operations)
 out of a pool of 24 trial point group operations.


The dynamic configuration has the point symmetry C_1 .


 Subroutine INISYM returns: Found  1 space group operations
 (whereof  1 operations are pure point group operations),
 and found     1 'primitive' translations


----------------------------------------------------------------------------------------

                                     Primitive cell                                     

  volume of cell :    2631.0826

  direct lattice vectors                    reciprocal lattice vectors
    12.325000000  0.000000000  0.000000000     0.081135903  0.046843835  0.000000000
    -6.162500000 10.673763102  0.000000000     0.000000000  0.093687670  0.000000000
     0.000000000  0.000000000 20.000000000     0.000000000  0.000000000  0.050000000

  length of vectors
    12.325000000 12.325000000 20.000000000     0.093687670  0.093687670  0.050000000

  position of ions in fractional coordinates (direct lattice)
     0.972450841  0.000320818  0.000708389
     0.039118382  0.133659505  0.000550216
     0.172443627  0.000295449  0.000624535
     0.239096278  0.133647917  0.000320585
     0.972452058  0.200322012  0.000606523
     0.039128360  0.333643771  0.000555187
     0.172451764  0.200354552  0.000273959
     0.239124359  0.333665720  0.000090325
     0.372465565  0.000324403  0.000567391
     0.439137473  0.133619939  0.000322923
     0.972449824  0.400309362  0.000684513
     0.039124981  0.533636789  0.000716763
     0.372416176  0.400329481  0.000000000
     0.439099602  0.533638981  0.000290518
     0.572443676  0.000312125  0.000699475
     0.639110207  0.133631751  0.000684093
     0.972452703  0.600305653  0.000800361
     0.039124495  0.733640359  0.000818141
     0.572433471  0.600306242  0.000503618
     0.639111888  0.733641879  0.000659881
     0.172454630  0.400318228  0.000361306
     0.239120185  0.533636548  0.000473136
     0.372459750  0.200295993  0.000111246
     0.439107096  0.333673419  0.000069702
     0.172452155  0.600311506  0.000655425
     0.239123371  0.733638574  0.000718912
     0.572431082  0.200289171  0.000516621
     0.639112773  0.333618630  0.000577970
     0.372439808  0.600308022  0.000453556
     0.439116090  0.733637858  0.000617737
     0.572469358  0.400320504  0.000424897
     0.639119408  0.533650873  0.000574513
     0.772445723  0.000315427  0.000745201
     0.839116277  0.133640203  0.000719132
     0.772440513  0.200307432  0.000726291
     0.839120241  0.333635728  0.000731834
     0.772446320  0.400298367  0.000728722
     0.839118980  0.533633964  0.000776376
     0.772456143  0.600308173  0.000744639
     0.839115033  0.733643180  0.000789390
     0.972455313  0.800305582  0.000815291
     0.039114714  0.933643289  0.000747563
     0.172457971  0.800312211  0.000779216
     0.239134551  0.933647193  0.000681063
     0.372451396  0.800316674  0.000689249
     0.439124489  0.933644769  0.000676788
     0.572441101  0.800310054  0.000668168
     0.639115067  0.933638985  0.000734556
     0.772445098  0.800313187  0.000752577
     0.839116614  0.933644338  0.000758538
     0.373021009  0.251226878  0.264865773
     0.420879805  0.189313152  0.268086866
     0.325156981  0.313167186  0.261893030

  ion indices of the primitive-cell ions
   primitive index   ion index
                 1           1
                 2           2
                 3           3
                 4           4
                 5           5
                 6           6
                 7           7
                 8           8
                 9           9
                10          10
                11          11
                12          12
                13          13
                14          14
                15          15
                16          16
                17          17
                18          18
                19          19
                20          20
                21          21
                22          22
                23          23
                24          24
                25          25
                26          26
                27          27
                28          28
                29          29
                30          30
                31          31
                32          32
                33          33
                34          34
                35          35
                36          36
                37          37
                38          38
                39          39
                40          40
                41          41
                42          42
                43          43
                44          44
                45          45
                46          46
                47          47
                48          48
                49          49
                50          50
                51          51
                52          52
                53          53

----------------------------------------------------------------------------------------

 
 
 KPOINTS: auto                                    

Automatic generation of k-mesh.
 Grid dimensions read from file:
 generate k-points for:    1    1    1

 Generating k-lattice:

  Cartesian coordinates                     Fractional coordinates (reciprocal lattice)
     0.081135903  0.046843835  0.000000000     1.000000000 -0.000000000  0.000000000
     0.000000000  0.093687670  0.000000000     0.000000000  1.000000000  0.000000000
     0.000000000  0.000000000  0.050000000     0.000000000  0.000000000  1.000000000

  Length of vectors
     0.093687670  0.093687670  0.050000000

  Shift w.r.t. Gamma in fractional coordinates (k-lattice)
     0.000000000  0.000000000  0.000000000

 
 Subroutine IBZKPT returns following result:
 ===========================================
 
 Found      1 irreducible k-points:
 
 Following reciprocal coordinates:
            Coordinates               Weight
  0.000000  0.000000  0.000000      1.000000
 
 Following cartesian coordinates:
            Coordinates               Weight
  0.000000  0.000000  0.000000      1.000000
 


--------------------------------------------------------------------------------------------------------




 Dimension of arrays:
   k-points           NKPTS =      1   k-points in BZ     NKDIM =      1   number of bands    NBANDS=    136
   number of dos      NEDOS =    301   number of ions     NIONS =     53
   non local maximal  LDIM  =      4   non local SUM 2l+1 LMDIM =      8
   total plane-waves  NPLWV = ******
   max r-space proj   IRMAX =      1   max aug-charges    IRDMAX=   9736
   dimension x,y,z NGX =   128 NGY =  128 NGZ =  210
   dimension x,y,z NGXF=   256 NGYF=  256 NGZF=  420
   support grid    NGXF=   256 NGYF=  256 NGZF=  420
   ions per type =              51   2
   NGX,Y,Z   is equivalent  to a cutoff of  17.27, 17.27, 17.46 a.u.
   NGXF,Y,Z  is equivalent  to a cutoff of  34.53, 34.53, 34.91 a.u.

 SYSTEM =  unknown system                          
 POSCAR =   C  O                                   

 Startparameter for this run:
   NWRITE =      2    write-flag & timer
   PREC   = accura    normal or accurate (medium, high low for compatibility)
   ISTART =      0    job   : 0-new  1-cont  2-samecut
   ICHARG =      2    charge: 1-file 2-atom 10-const
   ISPIN  =      1    spin polarized calculation?
   LNONCOLLINEAR =      F non collinear calculations
   LSORBIT =      F    spin-orbit coupling
   INIWAV =      1    electr: 0-lowe 1-rand  2-diag
   LASPH  =      T    aspherical Exc in radial PAW
 Electronic Relaxation 1
   ENCUT  = 1000.0 eV  73.50 Ry    8.57 a.u.  31.78 31.78 51.57*2*pi/ulx,y,z
   ENINI  = 1000.0     initial cutoff
   ENAUG  =  946.8 eV  augmentation charge cutoff
   NELM   =     60;   NELMIN=  2; NELMDL= -5     # of ELM steps 
   EDIFF  = 0.1E-06   stopping-criterion for ELM
   LREAL  =      F    real-space projection
   NLSPLINE    = F    spline interpolate recip. space projectors
   LCOMPAT=      F    compatible to vasp.4.4
   GGA_COMPAT  = T    GGA compatible to vasp.4.4-vasp.4.6
   LMAXPAW     = -100 max onsite density
   LMAXMIX     =    2 max onsite mixed and CHGCAR
   VOSKOWN=      0    Vosko Wilk Nusair interpolation
   ROPT   =    0.00000   0.00000
 Ionic relaxation
   EDIFFG = 0.1E-05   stopping-criterion for IOM
   NSW    =      0    number of steps for IOM
   NBLOCK =      1;   KBLOCK =      1    inner block; outer block 
   IBRION =     -1    ionic relax: 0-MD 1-quasi-New 2-CG
   NFREE  =      0    steps in history (QN), initial steepest desc. (CG)
   ISIF   =      0    stress and relaxation
   IWAVPR =     10    prediction:  0-non 1-charg 2-wave 3-comb
   ISYM   =      2    0-nonsym 1-usesym 2-fastsym
   LCORR  =      T    Harris-Foulkes like correction to forces

   POTIM  = 0.5000    time-step for ionic-motion
   TEIN   =    0.0    initial temperature
   TEBEG  =    0.0;   TEEND  =   0.0 temperature during run
   SMASS  =  -3.00    Nose mass-parameter (am)
   estimated Nose-frequenzy (Omega)   =  0.10E-29 period in steps = 0.13E+47 mass=  -0.347E-26a.u.
   SCALEE = 1.0000    scale energy and forces
   NPACO  =    256;   APACO  = 16.0  distance and # of slots for P.C.
   PSTRESS=    0.0 pullay stress

  Mass of Ions in am
   POMASS =  12.01 16.00
  Ionic Valenz
   ZVAL   =   4.00  6.00
  Atomic Wigner-Seitz radii
   RWIGS  =  -1.00 -1.00
  virtual crystal weights 
   VCA    =   1.00  1.00
   NELECT =     216.0000    total number of electrons
   NUPDOWN=      -1.0000    fix difference up-down

 DOS related values:
   EMIN   =  10.00;   EMAX   =-10.00  energy-range for DOS
   EFERMI =   0.00
   ISMEAR =     0;   SIGMA  =   0.01  broadening in eV -4-tet -1-fermi 0-gaus

 Electronic relaxation 2 (details)
   IALGO  =     58    algorithm
   LDIAG  =      T    sub-space diagonalisation (order eigenvalues)
   LSUBROT=      F    optimize rotation matrix (better conditioning)
   TURBO    =      0    0=normal 1=particle mesh
   IRESTART =      0    0=no restart 2=restart with 2 vectors
   NREBOOT  =      0    no. of reboots
   NMIN     =      0    reboot dimension
   EREF     =   0.00    reference energy to select bands
   IMIX   =      4    mixing-type and parameters
     AMIX     =   0.40;   BMIX     =  1.00
     AMIX_MAG =   1.60;   BMIX_MAG =  1.00
     AMIN     =   0.10
     WC   =   100.;   INIMIX=   1;  MIXPRE=   1;  MAXMIX= -45

 Intra band minimization:
   WEIMIN = 0.0000     energy-eigenvalue tresh-hold
   EBREAK =  0.18E-09  absolut break condition
   DEPER  =   0.30     relativ break condition  

   TIME   =   0.40     timestep for ELM

  volume/ion in A,a.u.               =      49.64       335.01
  Fermi-wavevector in a.u.,A,eV,Ry     =   0.711510  1.344560  6.887909  0.506247
  Thomas-Fermi vector in A             =   1.798641
 
 Write flags
   LWAVE        =      F    write WAVECAR
   LDOWNSAMPLE  =      F    k-point downsampling of WAVECAR
   LCHARG       =      T    write CHGCAR
   LVTOT        =      F    write LOCPOT, total local potential
   LVHAR        =      F    write LOCPOT, Hartree potential only
   LELF         =      F    write electronic localiz. function (ELF)
   LORBIT       =      0    0 simple, 1 ext, 2 COOP (PROOUT), +10 PAW based schemes


 Dipole corrections
   LMONO  =      F    monopole corrections only (constant potential shift)
   LDIPOL =      F    correct potential (dipole corrections)
   IDIPOL =      0    1-x, 2-y, 3-z, 4-all directions 
   EPSILON=  1.0000000 bulk dielectric constant

 Exchange correlation treatment:
   GGA     =    ML    GGA type
   LEXCH   =    44    internal setting for exchange type
   VOSKOWN=      0    Vosko Wilk Nusair interpolation
   LHFCALC =     F    Hartree Fock is set to
   LHFONE  =     F    Hartree Fock one center treatment
   AEXX    =    0.0000 exact exchange contribution

 vdW DFT:
   LUSE_VDW   =     T    switch on vdW DFT
   Zab_VDW    =******    correlation parameter
   PARAM1     =0.1234
   PARAM2     =1.0000
   PARAM3     =0.0000
   -- rVV10 --
   BPARAM     = 6.3000
   CPARAM     = 0.0093

 Linear response parameters
   LEPSILON=     F    determine dielectric tensor
   LRPA    =     F    only Hartree local field effects (RPA)
   LNABLA  =     F    use nabla operator in PAW spheres
   LVEL    =     F    velocity operator in full k-point grid
   LINTERFAST=   F  fast interpolation
   KINTER  =     0    interpolate to denser k-point grid
   CSHIFT  =0.1000    complex shift for real part using Kramers Kronig
   OMEGAMAX=  -1.0    maximum frequency
   DEG_THRESHOLD= 0.2000000E-02 threshold for treating states as degnerate
   RTIME   =   -0.100 relaxation time in fs
  (WPLASMAI=    0.000 imaginary part of plasma frequency in eV, 0.658/RTIME)
   DFIELD  = 0.0000000 0.0000000 0.0000000 field for delta impulse in time
 
 Orbital magnetization related:
   ORBITALMAG=     F  switch on orbital magnetization
   LCHIMAG   =     F  perturbation theory with respect to B field
   DQ        =  0.001000  dq finite difference perturbation B field
   LLRAUG    =     F  two centre corrections for induced B field



--------------------------------------------------------------------------------------------------------


 Static calculation
 charge density and potential will be updated during run
 non-spin polarized calculation
 Conjugate gradient for all bands (Freysoldt, et al. PRB 79, 241103 (2009))
 preconditioned conjugated gradient                                        
 perform sub-space diagonalisation
    before iterative eigenvector-optimisation
 modified Broyden-mixing scheme, WC =      100.0
 initial mixing is a Kerker type mixing with AMIX =  0.4000 and BMIX =      1.0000
 Hartree-type preconditioning will be used
 using additional bands           28
 reciprocal scheme for non local part
 use partial core corrections
 no Harris-corrections to forces 
 use gradient corrections 
 use of overlap-Matrix (Vanderbilt PP)
 Gauss-broadening in eV      SIGMA  =   0.01


--------------------------------------------------------------------------------------------------------


  energy-cutoff  :     1000.00
  volume of cell :     2631.08
      direct lattice vectors                 reciprocal lattice vectors
    12.325000000  0.000000000  0.000000000     0.081135903  0.046843835  0.000000000
    -6.162500000 10.673763102  0.000000000     0.000000000  0.093687670  0.000000000
     0.000000000  0.000000000 20.000000000     0.000000000  0.000000000  0.050000000

  length of vectors
    12.325000000 12.325000000 20.000000000     0.093687670  0.093687670  0.050000000


 
 k-points in units of 2pi/SCALE and weight: auto                                    
   0.00000000  0.00000000  0.00000000       1.000
 
 k-points in reciprocal lattice and weights: auto                                    
   0.00000000  0.00000000  0.00000000       1.000
 
 position of ions in fractional coordinates (direct lattice) 
   0.97245084  0.00032082  0.00070839
   0.03911838  0.13365950  0.00055022
   0.17244363  0.00029545  0.00062454
   0.23909628  0.13364792  0.00032058
   0.97245206  0.20032201  0.00060652
   0.03912836  0.33364377  0.00055519
   0.17245176  0.20035455  0.00027396
   0.23912436  0.33366572  0.00009033
   0.37246557  0.00032440  0.00056739
   0.43913747  0.13361994  0.00032292
   0.97244982  0.40030936  0.00068451
   0.03912498  0.53363679  0.00071676
   0.37241618  0.40032948  0.00000000
   0.43909960  0.53363898  0.00029052
   0.57244368  0.00031213  0.00069947
   0.63911021  0.13363175  0.00068409
   0.97245270  0.60030565  0.00080036
   0.03912449  0.73364036  0.00081814
   0.57243347  0.60030624  0.00050362
   0.63911189  0.73364188  0.00065988
   0.17245463  0.40031823  0.00036131
   0.23912018  0.53363655  0.00047314
   0.37245975  0.20029599  0.00011125
   0.43910710  0.33367342  0.00006970
   0.17245216  0.60031151  0.00065542
   0.23912337  0.73363857  0.00071891
   0.57243108  0.20028917  0.00051662
   0.63911277  0.33361863  0.00057797
   0.37243981  0.60030802  0.00045356
   0.43911609  0.73363786  0.00061774
   0.57246936  0.40032050  0.00042490
   0.63911941  0.53365087  0.00057451
   0.77244572  0.00031543  0.00074520
   0.83911628  0.13364020  0.00071913
   0.77244051  0.20030743  0.00072629
   0.83912024  0.33363573  0.00073183
   0.77244632  0.40029837  0.00072872
   0.83911898  0.53363396  0.00077638
   0.77245614  0.60030817  0.00074464
   0.83911503  0.73364318  0.00078939
   0.97245531  0.80030558  0.00081529
   0.03911471  0.93364329  0.00074756
   0.17245797  0.80031221  0.00077922
   0.23913455  0.93364719  0.00068106
   0.37245140  0.80031667  0.00068925
   0.43912449  0.93364477  0.00067679
   0.57244110  0.80031005  0.00066817
   0.63911507  0.93363899  0.00073456
   0.77244510  0.80031319  0.00075258
   0.83911661  0.93364434  0.00075854
   0.37302101  0.25122688  0.26486577
   0.42087980  0.18931315  0.26808687
   0.32515698  0.31316719  0.26189303
 
 position of ions in cartesian coordinates  (Angst):
  11.98347958  0.00342433  0.01416777
  -0.34154264  1.42664989  0.01100432
   2.12354700  0.00315355  0.01249070
   2.12325634  1.42652621  0.00641170
  10.75098721  2.13818970  0.01213047
  -1.57382270  3.56123457  0.01110375
   0.89078307  2.13853702  0.00547917
   0.89099273  3.56146885  0.00180651
   4.58863896  0.00346260  0.01134782
   4.58893648  1.42622757  0.00645846
   9.51853763  4.27280730  0.01369027
  -2.80632132  5.69591267  0.01433526
   2.12299894  4.27302204  0.00000000
   2.12335237  5.69593607  0.00581036
   7.05344483  0.00333155  0.01398950
   7.05352764  1.42635365  0.01368187
   8.28609598  6.40752033  0.01600723
  -4.03884931  7.83070339  0.01636283
   3.35585531  6.40752662  0.01007237
   3.35598594  7.83071962  0.01319763
  -0.34145776  4.27290193  0.00722612
  -0.34137895  5.69591010  0.00946273
   3.35624236  2.13791198  0.00222492
   3.35573251  3.56155103  0.00139405
  -1.57394684  6.40758280  0.01310850
  -1.57385216  7.83068434  0.01437823
   5.82093107  2.13783916  0.01033241
   5.82114012  3.56096622  0.01155939
   0.89092245  6.40754561  0.00907111
   0.89106251  7.83067670  0.01235474
   4.58870974  4.27292622  0.00849795
   4.58852320  5.69606300  0.01149026
   9.51844972  0.00336679  0.01490402
   9.51855036  1.42644387  0.01438264
   8.28593477  2.13803408  0.01452582
   8.28612680  3.56114872  0.01463668
   7.05356221  4.27268994  0.01457444
   7.05362213  5.69588251  0.01552751
   5.82112285  6.40754723  0.01489279
   5.82101669  7.83073350  0.01578780
   7.05362858  8.54227219  0.01630582
  -5.27148792  9.96548729  0.01495127
  -2.80637951  8.54234295  0.01558431
  -2.80626749  9.96552896  0.01362126
  -0.34148805  8.54239058  0.01378498
  -0.34137657  9.96550309  0.01353576
   2.12342586  8.54231992  0.01336337
   2.12354296  9.96544135  0.01469111
   4.58845581  8.54235337  0.01505154
   4.58852904  9.96549848  0.01517076
   3.04929830  2.68153618  5.29731547
   4.02070129  2.02068374  5.36173733
   2.07766701  3.34267235  5.23786060
 


--------------------------------------------------------------------------------------------------------


 k-point   1 :   0.0000 0.0000 0.0000  plane waves:  189031

 maximum and minimum number of plane-waves per node :      6755     6748

 maximum number of plane-waves:    189031
 maximum index in each direction: 
   IXMAX=   31   IYMAX=   31   IZMAX=   51
   IXMIN=  -31   IYMIN=  -31   IZMIN=  -51


 parallel 3D FFT for wavefunctions:
    minimum data exchange during FFTs selected (reduces bandwidth)
 parallel 3D FFT for charge:
    minimum data exchange during FFTs selected (reduces bandwidth)


 total amount of memory used by VASP MPI-rank0    85439. kBytes
=======================================================================

   base      :      30000. kBytes
   nonl-proj :       6586. kBytes
   fftplans  :      14299. kBytes
   grid      :      23511. kBytes
   one-center:          6. kBytes
   wavefun   :      11037. kBytes
 
     INWAV:  cpu time    0.0000: real time    0.0000
 Broyden mixing: mesh for mixing (old mesh)
   NGX = 63   NGY = 63   NGZ =103
  (NGX  =256   NGY  =256   NGZ  =420)
  gives a total of 408807 points

 initial charge density was supplied:
 charge density of overlapping atoms calculated
 number of electron     216.0000000 magnetization 
 keeping initial charge density in first step


--------------------------------------------------------------------------------------------------------


 Maximum index for augmentation-charges          459 (set IRDMAX)


--------------------------------------------------------------------------------------------------------


 First call to EWALD:  gamma=   0.128
 Maximum number of real-space cells 3x 3x 2
 Maximum number of reciprocal cells 3x 3x 4

    FEWALD:  cpu time    0.0030: real time    0.0030


--------------------------------------- Iteration      1(   1)  ---------------------------------------


vdW kernel read from vdw_kernel.bindat
  0.0000  0.2424  0.5071  0.7962  1.1119  1.4567  1.8333  2.2446  2.6937  3.1842
  3.7199  4.3049  4.9438  5.6415  6.4036  7.2358  8.1446  9.1372 10.2212 11.4050
 12.6979 14.1099 15.6519 17.3360 19.1751 21.1837 23.3773 25.7729 28.3892 31.2465
 34.3669 37.7748 41.4965 45.5611 50.0000
 
    POTLOK:  cpu time    3.4625: real time    3.4925
    SETDIJ:  cpu time    0.0545: real time    0.0548
    TRIAL :  cpu time    1.5187: real time    1.5346
    CORREC:  cpu time    0.0006: real time    0.0006
    --------------------------------------------
      LOOP:  cpu time    5.0384: real time    5.1061

 eigenvalue-minimisations  :   272
 total energy-change (2. order) : 0.2839680E+04  (-0.1100070E+05)
 number of electron     216.0000000 magnetization 
 augmentation part      216.0000000 magnetization 

 Free energy of the ion-electron system (eV)
  ---------------------------------------------------
  alpha Z        PSCENC =        59.93625244
  Ewald energy   TEWEN  =     31652.86799389
  -Hartree energ DENC   =    -37828.31078546
  -exchange      EXHF   =         0.00000000
  -V(xc)+E(xc)   XCENC  =       352.73167602
  PAW double counting   =      6601.42964284    -6299.49404826
  entropy T*S    EENTRO =        -0.00000000
  eigenvalues    EBANDS =      -256.89323045
  atomic energy  EATOM  =      8557.41276814
  ---------------------------------------------------
  free energy    TOTEN  =      2839.68026917 eV

  energy without entropy =     2839.68026917  energy(sigma->0) =     2839.68026917


--------------------------------------------------------------------------------------------------------




--------------------------------------- Iteration      1(   2)  ---------------------------------------


    TRIAL :  cpu time    2.1367: real time    2.1594
    CORREC:  cpu time    0.0000: real time    0.0000
    --------------------------------------------
      LOOP:  cpu time    2.1702: real time    2.2080

 eigenvalue-minimisations  :   440
 total energy-change (2. order) :-0.2429317E+04  (-0.2276953E+04)
 number of electron     216.0000000 magnetization 
 augmentation part      216.0000000 magnetization 

 Free energy of the ion-electron system (eV)
  ---------------------------------------------------
  alpha Z        PSCENC =        59.93625244
  Ewald energy   TEWEN  =     31652.86799389
  -Hartree energ DENC   =    -37828.31078546
  -exchange      EXHF   =         0.00000000
  -V(xc)+E(xc)   XCENC  =       352.73167602
  PAW double counting   =      6601.42964284    -6299.49404826
  entropy T*S    EENTRO =        -0.00000000
  eigenvalues    EBANDS =     -2686.21043586
  atomic energy  EATOM  =      8557.41276814
  ---------------------------------------------------
  free energy    TOTEN  =       410.36306376 eV

  energy without entropy =      410.36306376  energy(sigma->0) =      410.36306376


--------------------------------------------------------------------------------------------------------




--------------------------------------- Iteration      1(   3)  ---------------------------------------


    TRIAL :  cpu time    1.7929: real time    1.8086
    CORREC:  cpu time    0.0001: real time    0.0001
    --------------------------------------------
      LOOP:  cpu time    1.8417: real time    1.8803

 eigenvalue-minimisations  :   352
 total energy-change (2. order) :-0.7855760E+03  (-0.7803390E+03)
 number of electron     216.0000000 magnetization 
 augmentation part      216.0000000 magnetization 

 Free energy of the ion-electron system (eV)
  ---------------------------------------------------
  alpha Z        PSCENC =        59.93625244
  Ewald energy   TEWEN  =     31652.86799389
  -Hartree energ DENC   =    -37828.31078546
  -exchange      EXHF   =         0.00000000
  -V(xc)+E(xc)   XCENC  =       352.73167602
  PAW double counting   =      6601.42964284    -6299.49404826
  entropy T*S    EENTRO =        -0.00000000
  eigenvalues    EBANDS =     -3471.78645466
  atomic energy  EATOM  =      8557.41276814
  ---------------------------------------------------
  free energy    TOTEN  =      -375.21295505 eV

  energy without entropy =     -375.21295505  energy(sigma->0) =     -375.21295505


--------------------------------------------------------------------------------------------------------




--------------------------------------- Iteration      1(   4)  ---------------------------------------


    TRIAL :  cpu time    1.7530: real time    1.7698
    CORREC:  cpu time    0.0001: real time    0.0003
    --------------------------------------------
      LOOP:  cpu time    1.8100: real time    1.8726

 eigenvalue-minimisations  :   336
 total energy-change (2. order) :-0.5542083E+02  (-0.5494888E+02)
 number of electron     216.0000000 magnetization 
 augmentation part      216.0000000 magnetization 

 Free energy of the ion-electron system (eV)
  ---------------------------------------------------
  alpha Z        PSCENC =        59.93625244
  Ewald energy   TEWEN  =     31652.86799389
  -Hartree energ DENC   =    -37828.31078546
  -exchange      EXHF   =         0.00000000
  -V(xc)+E(xc)   XCENC  =       352.73167602
  PAW double counting   =      6601.42964284    -6299.49404826
  entropy T*S    EENTRO =        -0.00000000
  eigenvalues    EBANDS =     -3527.20728335
  atomic energy  EATOM  =      8557.41276814
  ---------------------------------------------------
  free energy    TOTEN  =      -430.63378373 eV

  energy without entropy =     -430.63378373  energy(sigma->0) =     -430.63378373


--------------------------------------------------------------------------------------------------------




--------------------------------------- Iteration      1(   5)  ---------------------------------------


    TRIAL :  cpu time    1.8224: real time    1.8418
    CORREC:  cpu time    0.0001: real time    0.0001
    CHARGE:  cpu time    0.1195: real time    0.1209
    --------------------------------------------
      LOOP:  cpu time    1.9824: real time    2.0114

 eigenvalue-minimisations  :   360
 total energy-change (2. order) :-0.1664253E+01  (-0.1657397E+01)
 number of electron     216.0000000 magnetization 
 augmentation part       -0.1417145 magnetization 

 Free energy of the ion-electron system (eV)
  ---------------------------------------------------
  alpha Z        PSCENC =        59.93625244
  Ewald energy   TEWEN  =     31652.86799389
  -Hartree energ DENC   =    -37828.31078546
  -exchange      EXHF   =         0.00000000
  -V(xc)+E(xc)   XCENC  =       352.73167602
  PAW double counting   =      6601.42964284    -6299.49404826
  entropy T*S    EENTRO =        -0.00000000
  eigenvalues    EBANDS =     -3528.87153613
  atomic energy  EATOM  =      8557.41276814
  ---------------------------------------------------
  free energy    TOTEN  =      -432.29803651 eV

  energy without entropy =     -432.29803651  energy(sigma->0) =     -432.29803651


--------------------------------------------------------------------------------------------------------




--------------------------------------- Iteration      1(   6)  ---------------------------------------


    POTLOK:  cpu time    3.1481: real time    3.1720
    SETDIJ:  cpu time    0.0530: real time    0.0532
    TRIAL :  cpu time    0.8641: real time    0.8724
    CORREC:  cpu time    3.4952: real time    3.5240
    CHARGE:  cpu time    0.1181: real time    0.1192
    --------------------------------------------
      LOOP:  cpu time    7.7275: real time    7.8072

 eigenvalue-minimisations  :     0
 total energy-change (2. order) : 0.6370031E+02  (-0.2176641E+02)
 number of electron     216.0000000 magnetization 
 augmentation part       -0.2747198 magnetization 

 Free energy of the ion-electron system (eV)
  ---------------------------------------------------
  alpha Z        PSCENC =        59.93625244
  Ewald energy   TEWEN  =     31652.86799389
  -Hartree energ DENC   =    -39362.18317301
  -exchange      EXHF   =         0.00000000
  -V(xc)+E(xc)   XCENC  =       408.15669724
  PAW double counting   =     52770.65839936   -52492.82563365
  entropy T*S    EENTRO =        -0.00000000
  eigenvalues    EBANDS =     -1962.62102954
  atomic energy  EATOM  =      8557.41276814
  ---------------------------------------------------
  free energy    TOTEN  =      -368.59772512 eV

  energy without entropy =     -368.59772512  energy(sigma->0) =     -368.59772512


--------------------------------------------------------------------------------------------------------




--------------------------------------- Iteration      1(   7)  ---------------------------------------


    POTLOK:  cpu time    3.1484: real time    3.1720
    SETDIJ:  cpu time    0.0641: real time    0.0643
    TRIAL :  cpu time    0.8806: real time    0.8890
    CORREC:  cpu time    3.5182: real time    3.5452
    CHARGE:  cpu time    0.1172: real time    0.1184
    --------------------------------------------
      LOOP:  cpu time    7.8115: real time    7.8744

 eigenvalue-minimisations  :     0
 total energy-change (2. order) :-0.2187688E+02  (-0.2187319E+01)
 number of electron     216.0000000 magnetization 
 augmentation part       -0.3288474 magnetization 

 Free energy of the ion-electron system (eV)
  ---------------------------------------------------
  alpha Z        PSCENC =        59.93625244
  Ewald energy   TEWEN  =     31652.86799389
  -Hartree energ DENC   =    -38768.94991091
  -exchange      EXHF   =         0.00000000
  -V(xc)+E(xc)   XCENC  =       385.57097534
  PAW double counting   =     68548.16586894   -68263.28493299
  entropy T*S    EENTRO =        -0.00000000
  eigenvalues    EBANDS =     -2562.19362041
  atomic energy  EATOM  =      8557.41276814
  ---------------------------------------------------
  free energy    TOTEN  =      -390.47460554 eV

  energy without entropy =     -390.47460554  energy(sigma->0) =     -390.47460554


--------------------------------------------------------------------------------------------------------




--------------------------------------- Iteration      1(   8)  ---------------------------------------


    POTLOK:  cpu time    3.1474: real time    3.1710
    SETDIJ:  cpu time    0.0625: real time    0.0627
    TRIAL :  cpu time    0.8612: real time    0.8696
    CORREC:  cpu time    3.5005: real time    3.5283
    CHARGE:  cpu time    0.1180: real time    0.1192
    --------------------------------------------
      LOOP:  cpu time    7.8081: real time    7.8776

 eigenvalue-minimisations  :     0
 total energy-change (2. order) :-0.2184101E+01  (-0.5971525E+00)
 number of electron     216.0000000 magnetization 
 augmentation part       -0.3522236 magnetization 

 Free energy of the ion-electron system (eV)
  ---------------------------------------------------
  alpha Z        PSCENC =        59.93625244
  Ewald energy   TEWEN  =     31652.86799389
  -Hartree energ DENC   =    -38740.45369806
  -exchange      EXHF   =         0.00000000
  -V(xc)+E(xc)   XCENC  =       385.04583684
  PAW double counting   =     73737.47372275   -73451.46954129
  entropy T*S    EENTRO =        -0.00000000
  eigenvalues    EBANDS =     -2593.47204095
  atomic energy  EATOM  =      8557.41276814
  ---------------------------------------------------
  free energy    TOTEN  =      -392.65870623 eV

  energy without entropy =     -392.65870623  energy(sigma->0) =     -392.65870623


--------------------------------------------------------------------------------------------------------




--------------------------------------- Iteration      1(   9)  ---------------------------------------


    POTLOK:  cpu time    3.1404: real time    3.1633
    SETDIJ:  cpu time    0.0639: real time    0.0641
    TRIAL :  cpu time    0.8580: real time    0.8663
    CORREC:  cpu time    3.4929: real time    3.5197
    CHARGE:  cpu time    0.1171: real time    0.1184
    --------------------------------------------
      LOOP:  cpu time    7.7991: real time    7.8612

 eigenvalue-minimisations  :     0
 total energy-change (2. order) :-0.5973316E+00  (-0.2215523E+00)
 number of electron     216.0000000 magnetization 
 augmentation part       -0.3615173 magnetization 

 Free energy of the ion-electron system (eV)
  ---------------------------------------------------
  alpha Z        PSCENC =        59.93625244
  Ewald energy   TEWEN  =     31652.86799389
  -Hartree energ DENC   =    -38755.98472466
  -exchange      EXHF   =         0.00000000
  -V(xc)+E(xc)   XCENC  =       385.51957047
  PAW double counting   =     78053.24490058   -77766.78437930
  entropy T*S    EENTRO =        -0.00000000
  eigenvalues    EBANDS =     -2579.46841939
  atomic energy  EATOM  =      8557.41276814
  ---------------------------------------------------
  free energy    TOTEN  =      -393.25603782 eV

  energy without entropy =     -393.25603782  energy(sigma->0) =     -393.25603782


--------------------------------------------------------------------------------------------------------




--------------------------------------- Iteration      1(  10)  ---------------------------------------


    POTLOK:  cpu time    3.1343: real time    3.1607
    SETDIJ:  cpu time    0.0641: real time    0.0643
    TRIAL :  cpu time    0.8605: real time    0.8690
    CORREC:  cpu time    3.5015: real time    3.5291
    CHARGE:  cpu time    0.1164: real time    0.1176
    --------------------------------------------
      LOOP:  cpu time    7.7012: real time    7.8277

 eigenvalue-minimisations  :     0
 total energy-change (2. order) :-0.2210943E+00  (-0.9776209E-01)
 number of electron     216.0000000 magnetization 
 augmentation part       -0.3594725 magnetization 

 Free energy of the ion-electron system (eV)
  ---------------------------------------------------
  alpha Z        PSCENC =        59.93625244
  Ewald energy   TEWEN  =     31652.86799389
  -Hartree energ DENC   =    -38753.20600932
  -exchange      EXHF   =         0.00000000
  -V(xc)+E(xc)   XCENC  =       385.48424394
  PAW double counting   =     79904.02820592   -79617.27082600
  entropy T*S    EENTRO =        -0.00000000
  eigenvalues    EBANDS =     -2582.72976114
  atomic energy  EATOM  =      8557.41276814
  ---------------------------------------------------
  free energy    TOTEN  =      -393.47713212 eV

  energy without entropy =     -393.47713212  energy(sigma->0) =     -393.47713212


--------------------------------------------------------------------------------------------------------




--------------------------------------- Iteration      1(  11)  ---------------------------------------


    POTLOK:  cpu time    3.1332: real time    3.1760
    SETDIJ:  cpu time    0.0631: real time    0.0633
    TRIAL :  cpu time    0.8566: real time    0.8708
    CORREC:  cpu time    3.4894: real time    3.5283
    CHARGE:  cpu time    0.1169: real time    0.1181
    --------------------------------------------
      LOOP:  cpu time    7.7071: real time    7.8388

 eigenvalue-minimisations  :     0
 total energy-change (2. order) :-0.9743023E-01  (-0.4082871E-01)
 number of electron     216.0000000 magnetization 
 augmentation part       -0.3567985 magnetization 

 Free energy of the ion-electron system (eV)
  ---------------------------------------------------
  alpha Z        PSCENC =        59.93625244
  Ewald energy   TEWEN  =     31652.86799389
  -Hartree energ DENC   =    -38746.65475099
  -exchange      EXHF   =         0.00000000
  -V(xc)+E(xc)   XCENC  =       385.42327547
  PAW double counting   =     80067.81428441   -79780.98695347
  entropy T*S    EENTRO =        -0.00000000
  eigenvalues    EBANDS =     -2589.38743225
  atomic energy  EATOM  =      8557.41276814
  ---------------------------------------------------
  free energy    TOTEN  =      -393.57456235 eV

  energy without entropy =     -393.57456235  energy(sigma->0) =     -393.57456235


--------------------------------------------------------------------------------------------------------




--------------------------------------- Iteration      1(  12)  ---------------------------------------


    POTLOK:  cpu time    3.1536: real time    3.1767
    SETDIJ:  cpu time    0.0644: real time    0.0646
    TRIAL :  cpu time    0.8588: real time    0.8678
    CORREC:  cpu time    3.4959: real time    3.5252
    CHARGE:  cpu time    0.1171: real time    0.1183
    --------------------------------------------
      LOOP:  cpu time    7.8055: real time    7.8712

 eigenvalue-minimisations  :     0
 total energy-change (2. order) :-0.4068327E-01  (-0.1317915E-01)
 number of electron     216.0000000 magnetization 
 augmentation part       -0.3562174 magnetization 

 Free energy of the ion-electron system (eV)
  ---------------------------------------------------
  alpha Z        PSCENC =        59.93625244
  Ewald energy   TEWEN  =     31652.86799389
  -Hartree energ DENC   =    -38744.09019476
  -exchange      EXHF   =         0.00000000
  -V(xc)+E(xc)   XCENC  =       385.35648663
  PAW double counting   =     79637.27348143   -79350.49932733
  entropy T*S    EENTRO =        -0.00000000
  eigenvalues    EBANDS =     -2591.87270607
  atomic energy  EATOM  =      8557.41276814
  ---------------------------------------------------
  free energy    TOTEN  =      -393.61524562 eV

  energy without entropy =     -393.61524562  energy(sigma->0) =     -393.61524562


--------------------------------------------------------------------------------------------------------




--------------------------------------- Iteration      1(  13)  ---------------------------------------


    POTLOK:  cpu time    3.1590: real time    3.1878
    SETDIJ:  cpu time    0.0642: real time    0.0644
    TRIAL :  cpu time    0.8599: real time    0.8684
    CORREC:  cpu time    3.5012: real time    3.5284
    CHARGE:  cpu time    0.1181: real time    0.1194
    --------------------------------------------
      LOOP:  cpu time    7.7616: real time    7.8868

 eigenvalue-minimisations  :     0
 total energy-change (2. order) :-0.1316257E-01  (-0.3897146E-02)
 number of electron     216.0000000 magnetization 
 augmentation part       -0.3560062 magnetization 

 Free energy of the ion-electron system (eV)
  ---------------------------------------------------
  alpha Z        PSCENC =        59.93625244
  Ewald energy   TEWEN  =     31652.86799389
  -Hartree energ DENC   =    -38744.09079932
  -exchange      EXHF   =         0.00000000
  -V(xc)+E(xc)   XCENC  =       385.32550104
  PAW double counting   =     79240.94580214   -78954.22740064
  entropy T*S    EENTRO =        -0.00000000
  eigenvalues    EBANDS =     -2591.79852589
  atomic energy  EATOM  =      8557.41276814
  ---------------------------------------------------
  free energy    TOTEN  =      -393.62840820 eV

  energy without entropy =     -393.62840820  energy(sigma->0) =     -393.62840820


--------------------------------------------------------------------------------------------------------




--------------------------------------- Iteration      1(  14)  ---------------------------------------


    POTLOK:  cpu time    3.1455: real time    3.1699
    SETDIJ:  cpu time    0.0645: real time    0.0647
    TRIAL :  cpu time    0.8623: real time    0.8709
    CORREC:  cpu time    3.4973: real time    3.5257
    CHARGE:  cpu time    0.1169: real time    0.1180
    --------------------------------------------
      LOOP:  cpu time    7.7626: real time    7.8390

 eigenvalue-minimisations  :     0
 total energy-change (2. order) :-0.3896213E-02  (-0.1347780E-02)
 number of electron     216.0000000 magnetization 
 augmentation part       -0.3563652 magnetization 

 Free energy of the ion-electron system (eV)
  ---------------------------------------------------
  alpha Z        PSCENC =        59.93625244
  Ewald energy   TEWEN  =     31652.86799389
  -Hartree energ DENC   =    -38743.99637519
  -exchange      EXHF   =         0.00000000
  -V(xc)+E(xc)   XCENC  =       385.30327508
  PAW double counting   =     79089.15321206   -78802.46048036
  entropy T*S    EENTRO =        -0.00000000
  eigenvalues    EBANDS =     -2591.84895048
  atomic energy  EATOM  =      8557.41276814
  ---------------------------------------------------
  free energy    TOTEN  =      -393.63230441 eV

  energy without entropy =     -393.63230441  energy(sigma->0) =     -393.63230441


--------------------------------------------------------------------------------------------------------




--------------------------------------- Iteration      1(  15)  ---------------------------------------


    POTLOK:  cpu time    3.1414: real time    3.1747
    SETDIJ:  cpu time    0.0635: real time    0.0637
    TRIAL :  cpu time    0.8666: real time    0.8750
    CORREC:  cpu time    3.5018: real time    3.5299
    CHARGE:  cpu time    0.1175: real time    0.1187
    --------------------------------------------
      LOOP:  cpu time    7.7818: real time    7.8546

 eigenvalue-minimisations  :     0
 total energy-change (2. order) :-0.1347468E-02  (-0.6405370E-03)
 number of electron     216.0000000 magnetization 
 augmentation part       -0.3563984 magnetization 

 Free energy of the ion-electron system (eV)
  ---------------------------------------------------
  alpha Z        PSCENC =        59.93625244
  Ewald energy   TEWEN  =     31652.86799389
  -Hartree energ DENC   =    -38743.58209150
  -exchange      EXHF   =         0.00000000
  -V(xc)+E(xc)   XCENC  =       385.27364012
  PAW double counting   =     79037.36434839   -78750.67688841
  entropy T*S    EENTRO =        -0.00000000
  eigenvalues    EBANDS =     -2592.22967496
  atomic energy  EATOM  =      8557.41276814
  ---------------------------------------------------
  free energy    TOTEN  =      -393.63365188 eV

  energy without entropy =     -393.63365188  energy(sigma->0) =     -393.63365188


--------------------------------------------------------------------------------------------------------




--------------------------------------- Iteration      1(  16)  ---------------------------------------


    POTLOK:  cpu time    3.1397: real time    3.1638
    SETDIJ:  cpu time    0.0626: real time    0.0628
    TRIAL :  cpu time    0.8589: real time    0.8675
    CORREC:  cpu time    3.4926: real time    3.5204
    CHARGE:  cpu time    0.1160: real time    0.1173
    --------------------------------------------
      LOOP:  cpu time    7.7340: real time    7.8027

 eigenvalue-minimisations  :     0
 total energy-change (2. order) :-0.6396410E-03  (-0.3376759E-03)
 number of electron     216.0000000 magnetization 
 augmentation part       -0.3564050 magnetization 

 Free energy of the ion-electron system (eV)
  ---------------------------------------------------
  alpha Z        PSCENC =        59.93625244
  Ewald energy   TEWEN  =     31652.86799389
  -Hartree energ DENC   =    -38743.93415197
  -exchange      EXHF   =         0.00000000
  -V(xc)+E(xc)   XCENC  =       385.28796884
  PAW double counting   =     78976.91729074   -78690.23637782
  entropy T*S    EENTRO =        -0.00000000
  eigenvalues    EBANDS =     -2591.88603579
  atomic energy  EATOM  =      8557.41276814
  ---------------------------------------------------
  free energy    TOTEN  =      -393.63429152 eV

  energy without entropy =     -393.63429152  energy(sigma->0) =     -393.63429152


--------------------------------------------------------------------------------------------------------




--------------------------------------- Iteration      1(  17)  ---------------------------------------


    POTLOK:  cpu time    3.1385: real time    3.1629
    SETDIJ:  cpu time    0.0623: real time    0.0625
    TRIAL :  cpu time    0.8588: real time    0.8673
    CORREC:  cpu time    3.4818: real time    3.5097
    CHARGE:  cpu time    0.1168: real time    0.1181
    --------------------------------------------
      LOOP:  cpu time    7.7145: real time    7.8028

 eigenvalue-minimisations  :     0
 total energy-change (2. order) :-0.3373937E-03  (-0.1590191E-03)
 number of electron     216.0000000 magnetization 
 augmentation part       -0.3563695 magnetization 

 Free energy of the ion-electron system (eV)
  ---------------------------------------------------
  alpha Z        PSCENC =        59.93625244
  Ewald energy   TEWEN  =     31652.86799389
  -Hartree energ DENC   =    -38743.96671361
  -exchange      EXHF   =         0.00000000
  -V(xc)+E(xc)   XCENC  =       385.28930410
  PAW double counting   =     78921.49641441   -78634.81391372
  entropy T*S    EENTRO =        -0.00000000
  eigenvalues    EBANDS =     -2591.85673456
  atomic energy  EATOM  =      8557.41276814
  ---------------------------------------------------
  free energy    TOTEN  =      -393.63462891 eV

  energy without entropy =     -393.63462891  energy(sigma->0) =     -393.63462891


--------------------------------------------------------------------------------------------------------




--------------------------------------- Iteration      1(  18)  ---------------------------------------


    POTLOK:  cpu time    3.1509: real time    3.1779
    SETDIJ:  cpu time    0.0630: real time    0.0632
    TRIAL :  cpu time    0.8608: real time    0.8697
    CORREC:  cpu time    3.5090: real time    3.5458
    CHARGE:  cpu time    0.1177: real time    0.1191
    --------------------------------------------
      LOOP:  cpu time    7.7792: real time    7.8561

 eigenvalue-minimisations  :     0
 total energy-change (2. order) :-0.1590954E-03  (-0.5583107E-04)
 number of electron     216.0000000 magnetization 
 augmentation part       -0.3564051 magnetization 

 Free energy of the ion-electron system (eV)
  ---------------------------------------------------
  alpha Z        PSCENC =        59.93625244
  Ewald energy   TEWEN  =     31652.86799389
  -Hartree energ DENC   =    -38744.05156428
  -exchange      EXHF   =         0.00000000
  -V(xc)+E(xc)   XCENC  =       385.29243026
  PAW double counting   =     78905.57142018   -78618.88579362
  entropy T*S    EENTRO =        -0.00000000
  eigenvalues    EBANDS =     -2591.77829502
  atomic energy  EATOM  =      8557.41276814
  ---------------------------------------------------
  free energy    TOTEN  =      -393.63478801 eV

  energy without entropy =     -393.63478801  energy(sigma->0) =     -393.63478801


--------------------------------------------------------------------------------------------------------




--------------------------------------- Iteration      1(  19)  ---------------------------------------


    POTLOK:  cpu time    3.1447: real time    3.1689
    SETDIJ:  cpu time    0.0627: real time    0.0629
    TRIAL :  cpu time    0.8605: real time    0.8689
    CORREC:  cpu time    3.5024: real time    3.5306
    CHARGE:  cpu time    0.1192: real time    0.1204
    --------------------------------------------
      LOOP:  cpu time    7.7707: real time    7.8340

 eigenvalue-minimisations  :     0
 total energy-change (2. order) :-0.5589298E-04  (-0.2164046E-04)
 number of electron     216.0000000 magnetization 
 augmentation part       -0.3564077 magnetization 

 Free energy of the ion-electron system (eV)
  ---------------------------------------------------
  alpha Z        PSCENC =        59.93625244
  Ewald energy   TEWEN  =     31652.86799389
  -Hartree energ DENC   =    -38744.09934771
  -exchange      EXHF   =         0.00000000
  -V(xc)+E(xc)   XCENC  =       385.29327182
  PAW double counting   =     78919.44718267   -78632.75942921
  entropy T*S    EENTRO =        -0.00000000
  eigenvalues    EBANDS =     -2591.73353596
  atomic energy  EATOM  =      8557.41276814
  ---------------------------------------------------
  free energy    TOTEN  =      -393.63484390 eV

  energy without entropy =     -393.63484390  energy(sigma->0) =     -393.63484390


--------------------------------------------------------------------------------------------------------




--------------------------------------- Iteration      1(  20)  ---------------------------------------


    POTLOK:  cpu time    3.1427: real time    3.1697
    SETDIJ:  cpu time    0.0645: real time    0.0647
    TRIAL :  cpu time    0.8605: real time    0.8699
    CORREC:  cpu time    3.5167: real time    3.5455
    CHARGE:  cpu time    0.1164: real time    0.1176
    --------------------------------------------
      LOOP:  cpu time    7.7067: real time    7.8248

 eigenvalue-minimisations  :     0
 total energy-change (2. order) :-0.2170677E-04  (-0.9533219E-05)
 number of electron     216.0000000 magnetization 
 augmentation part       -0.3563963 magnetization 

 Free energy of the ion-electron system (eV)
  ---------------------------------------------------
  alpha Z        PSCENC =        59.93625244
  Ewald energy   TEWEN  =     31652.86799389
  -Hartree energ DENC   =    -38744.10296188
  -exchange      EXHF   =         0.00000000
  -V(xc)+E(xc)   XCENC  =       385.29379902
  PAW double counting   =     78937.20330601   -78650.51504792
  entropy T*S    EENTRO =        -0.00000000
  eigenvalues    EBANDS =     -2591.73097532
  atomic energy  EATOM  =      8557.41276814
  ---------------------------------------------------
  free energy    TOTEN  =      -393.63486561 eV

  energy without entropy =     -393.63486561  energy(sigma->0) =     -393.63486561


--------------------------------------------------------------------------------------------------------




--------------------------------------- Iteration      1(  21)  ---------------------------------------


    POTLOK:  cpu time    3.1801: real time    3.2034
    SETDIJ:  cpu time    0.0631: real time    0.0634
    TRIAL :  cpu time    0.8595: real time    0.8678
    CORREC:  cpu time    3.4897: real time    3.5173
    CHARGE:  cpu time    0.1163: real time    0.1174
    --------------------------------------------
      LOOP:  cpu time    7.7678: real time    7.8310

 eigenvalue-minimisations  :     0
 total energy-change (2. order) :-0.9492956E-05  (-0.5020653E-05)
 number of electron     216.0000000 magnetization 
 augmentation part       -0.3563680 magnetization 

 Free energy of the ion-electron system (eV)
  ---------------------------------------------------
  alpha Z        PSCENC =        59.93625244
  Ewald energy   TEWEN  =     31652.86799389
  -Hartree energ DENC   =    -38744.07893309
  -exchange      EXHF   =         0.00000000
  -V(xc)+E(xc)   XCENC  =       385.29296126
  PAW double counting   =     78947.39045554   -78660.70224853
  entropy T*S    EENTRO =        -0.00000000
  eigenvalues    EBANDS =     -2591.75412476
  atomic energy  EATOM  =      8557.41276814
  ---------------------------------------------------
  free energy    TOTEN  =      -393.63487510 eV

  energy without entropy =     -393.63487510  energy(sigma->0) =     -393.63487510


--------------------------------------------------------------------------------------------------------




--------------------------------------- Iteration      1(  22)  ---------------------------------------


    POTLOK:  cpu time    3.1436: real time    3.1699
    SETDIJ:  cpu time    0.0625: real time    0.0627
    TRIAL :  cpu time    0.8590: real time    0.8676
    CORREC:  cpu time    3.5210: real time    3.5552
    CHARGE:  cpu time    0.1192: real time    0.1203
    --------------------------------------------
      LOOP:  cpu time    7.7693: real time    7.8402

 eigenvalue-minimisations  :     0
 total energy-change (2. order) :-0.4967776E-05  (-0.2286440E-05)
 number of electron     216.0000000 magnetization 
 augmentation part       -0.3563630 magnetization 

 Free energy of the ion-electron system (eV)
  ---------------------------------------------------
  alpha Z        PSCENC =        59.93625244
  Ewald energy   TEWEN  =     31652.86799389
  -Hartree energ DENC   =    -38744.08072255
  -exchange      EXHF   =         0.00000000
  -V(xc)+E(xc)   XCENC  =       385.29319044
  PAW double counting   =     78950.65093877   -78663.96315370
  entropy T*S    EENTRO =        -0.00000000
  eigenvalues    EBANDS =     -2591.75214751
  atomic energy  EATOM  =      8557.41276814
  ---------------------------------------------------
  free energy    TOTEN  =      -393.63488007 eV

  energy without entropy =     -393.63488007  energy(sigma->0) =     -393.63488007


--------------------------------------------------------------------------------------------------------




--------------------------------------- Iteration      1(  23)  ---------------------------------------


    POTLOK:  cpu time    3.1523: real time    3.1788
    SETDIJ:  cpu time    0.0626: real time    0.0628
    TRIAL :  cpu time    0.8698: real time    0.8781
    CORREC:  cpu time    3.5068: real time    3.5342
    CHARGE:  cpu time    0.1182: real time    0.1194
    --------------------------------------------
      LOOP:  cpu time    7.7511: real time    7.8605

 eigenvalue-minimisations  :     0
 total energy-change (2. order) :-0.2284520E-05  (-0.1060993E-05)
 number of electron     216.0000000 magnetization 
 augmentation part       -0.3563690 magnetization 

 Free energy of the ion-electron system (eV)
  ---------------------------------------------------
  alpha Z        PSCENC =        59.93625244
  Ewald energy   TEWEN  =     31652.86799389
  -Hartree energ DENC   =    -38744.06877376
  -exchange      EXHF   =         0.00000000
  -V(xc)+E(xc)   XCENC  =       385.29281168
  PAW double counting   =     78950.04994263   -78663.36220656
  entropy T*S    EENTRO =        -0.00000000
  eigenvalues    EBANDS =     -2591.76367082
  atomic energy  EATOM  =      8557.41276814
  ---------------------------------------------------
  free energy    TOTEN  =      -393.63488235 eV

  energy without entropy =     -393.63488235  energy(sigma->0) =     -393.63488235


--------------------------------------------------------------------------------------------------------




--------------------------------------- Iteration      1(  24)  ---------------------------------------


    POTLOK:  cpu time    3.1454: real time    3.1697
    SETDIJ:  cpu time    0.0643: real time    0.0645
    TRIAL :  cpu time    0.8598: real time    0.8691
    CORREC:  cpu time    3.5043: real time    3.5326
    CHARGE:  cpu time    0.1179: real time    0.1191
    --------------------------------------------
      LOOP:  cpu time    7.7425: real time    7.8197

 eigenvalue-minimisations  :     0
 total energy-change (2. order) :-0.1065942E-05  (-0.4888418E-06)
 number of electron     216.0000000 magnetization 
 augmentation part       -0.3563760 magnetization 

 Free energy of the ion-electron system (eV)
  ---------------------------------------------------
  alpha Z        PSCENC =        59.93625244
  Ewald energy   TEWEN  =     31652.86799389
  -Hartree energ DENC   =    -38744.06062447
  -exchange      EXHF   =         0.00000000
  -V(xc)+E(xc)   XCENC  =       385.29260633
  PAW double counting   =     78948.31826072   -78661.63046402
  entropy T*S    EENTRO =        -0.00000000
  eigenvalues    EBANDS =     -2591.77167645
  atomic energy  EATOM  =      8557.41276814
  ---------------------------------------------------
  free energy    TOTEN  =      -393.63488342 eV

  energy without entropy =     -393.63488342  energy(sigma->0) =     -393.63488342


--------------------------------------------------------------------------------------------------------




--------------------------------------- Iteration      1(  25)  ---------------------------------------


    POTLOK:  cpu time    3.1354: real time    3.1585
    SETDIJ:  cpu time    0.0634: real time    0.0636
    TRIAL :  cpu time    0.8579: real time    0.8664
    CORREC:  cpu time    3.4989: real time    3.5265
    CHARGE:  cpu time    0.1178: real time    0.1191
    --------------------------------------------
      LOOP:  cpu time    7.7279: real time    7.8192

 eigenvalue-minimisations  :     0
 total energy-change (2. order) :-0.4725443E-06  (-0.2537236E-06)
 number of electron     216.0000000 magnetization 
 augmentation part       -0.3563848 magnetization 

 Free energy of the ion-electron system (eV)
  ---------------------------------------------------
  alpha Z        PSCENC =        59.93625244
  Ewald energy   TEWEN  =     31652.86799389
  -Hartree energ DENC   =    -38744.06458993
  -exchange      EXHF   =         0.00000000
  -V(xc)+E(xc)   XCENC  =       385.29277291
  PAW double counting   =     78946.74958969   -78660.06180789
  entropy T*S    EENTRO =        -0.00000000
  eigenvalues    EBANDS =     -2591.76786315
  atomic energy  EATOM  =      8557.41276814
  ---------------------------------------------------
  free energy    TOTEN  =      -393.63488389 eV

  energy without entropy =     -393.63488389  energy(sigma->0) =     -393.63488389


--------------------------------------------------------------------------------------------------------




--------------------------------------- Iteration      1(  26)  ---------------------------------------


    POTLOK:  cpu time    3.1449: real time    3.1693
    SETDIJ:  cpu time    0.0621: real time    0.0623
    TRIAL :  cpu time    0.8592: real time    0.8677
    CORREC:  cpu time    3.5101: real time    3.5443
    CHARGE:  cpu time    0.1172: real time    0.1185
    --------------------------------------------
      LOOP:  cpu time    7.8026: real time    7.8921

 eigenvalue-minimisations  :     0
 total energy-change (2. order) :-0.2114539E-06  (-0.1088637E-06)
 number of electron     216.0000000 magnetization 
 augmentation part       -0.3563876 magnetization 

 Free energy of the ion-electron system (eV)
  ---------------------------------------------------
  alpha Z        PSCENC =        59.93625244
  Ewald energy   TEWEN  =     31652.86799389
  -Hartree energ DENC   =    -38744.06527270
  -exchange      EXHF   =         0.00000000
  -V(xc)+E(xc)   XCENC  =       385.29273429
  PAW double counting   =     78945.66782720   -78658.98005263
  entropy T*S    EENTRO =        -0.00000000
  eigenvalues    EBANDS =     -2591.76713474
  atomic energy  EATOM  =      8557.41276814
  ---------------------------------------------------
  free energy    TOTEN  =      -393.63488410 eV

  energy without entropy =     -393.63488410  energy(sigma->0) =     -393.63488410


--------------------------------------------------------------------------------------------------------




--------------------------------------- Iteration      1(  27)  ---------------------------------------


    POTLOK:  cpu time    3.1441: real time    3.1717
    SETDIJ:  cpu time    0.0622: real time    0.0625
    TRIAL :  cpu time    0.8626: real time    0.8722
    CORREC:  cpu time    3.5106: real time    3.5429
    EDDIAG:  cpu time    0.3257: real time    0.3298
    CHARGE:  cpu time    0.1160: real time    0.1173
    --------------------------------------------
      LOOP:  cpu time    8.0925: real time    8.1683

 eigenvalue-minimisations  :     0
 total energy-change (2. order) :-0.9809446E-07  (-0.5441266E-07)
 number of electron     216.0000000 magnetization 
 augmentation part       -0.3563877 magnetization 

 Free energy of the ion-electron system (eV)
  ---------------------------------------------------
  alpha Z        PSCENC =        59.93625244
  Ewald energy   TEWEN  =     31652.86799389
  -Hartree energ DENC   =    -38744.06736967
  -exchange      EXHF   =         0.00000000
  -V(xc)+E(xc)   XCENC  =       385.29280882
  PAW double counting   =     78945.37762926   -78658.68989867
  entropy T*S    EENTRO =        -0.00000000
  eigenvalues    EBANDS =     -2591.76506842
  atomic energy  EATOM  =      8557.41276814
  ---------------------------------------------------
  free energy    TOTEN  =      -393.63488420 eV

  energy without entropy =     -393.63488420  energy(sigma->0) =     -393.63488420


--------------------------------------------------------------------------------------------------------


  average scaling for gradient   0.8590


 average (electrostatic) potential at core
  the test charge radii are     0.5770  0.5955
  (the norm of the test charge is              1.0000)
       1 -86.4369       2 -86.4357       3 -86.4384       4 -86.4407       5 -86.4340
       6 -86.4332       7 -86.4381       8 -86.4353       9 -86.4353      10 -86.4378
[...]
      16 -86.4337      17 -86.4347      18 -86.4358      19 -86.4367      20 -86.4349
      21 -86.4331      22 -86.4326      23 -86.4420      24 -86.4417      25 -86.4329
      26 -86.4337      27 -86.4358      28 -86.4379      29 -86.4332      30 -86.4330
      31 -86.4395      32 -86.4375      33 -86.4344      34 -86.4335      35 -86.4336
      36 -86.4342      37 -86.4355      38 -86.4363      39 -86.4364      40 -86.4361
      41 -86.4361      42 -86.4369      43 -86.4349      44 -86.4370      45 -86.4330
      46 -86.4335      47 -86.4339      48 -86.4333      49 -86.4361      50 -86.4350
      51 -90.7303      52-120.4957      53-120.4956
 
 
 
 E-fermi :  -4.0316     XC(G=0):  -2.7942     alpha+bet : -2.1113

 Fermi energy:        -4.0316392838

 k-point     1 :       0.0000    0.0000    0.0000
  band No.  band energies     occupation 
      1     -27.5641      2.00000
      2     -26.6147      2.00000
      3     -22.0458      2.00000
      4     -21.1196      2.00000
      5     -21.1191      2.00000
      6     -21.1189      2.00000
      7     -21.1174      2.00000
      8     -21.1166      2.00000
      9     -21.1165      2.00000
     10     -19.3032      2.00000
     11     -19.3029      2.00000
     12     -19.3027      2.00000
     13     -19.3024      2.00000
     14     -19.3023      2.00000
     15     -19.3022      2.00000
     16     -18.4228      2.00000
     17     -18.4228      2.00000
     18     -18.4225      2.00000
     19     -18.4218      2.00000
     20     -18.4217      2.00000
     21     -18.4215      2.00000
     22     -16.3274      2.00000
     23     -16.3272      2.00000
     24     -16.3264      2.00000
     25     -16.3262      2.00000
     26     -16.3252      2.00000
     27     -16.3251      2.00000
     28     -15.2824      2.00000
     29     -15.2823      2.00000
     30     -15.2819      2.00000
     31     -15.2818      2.00000
     32     -15.2811      2.00000
     33     -15.2810      2.00000
     34     -13.9701      2.00000
     35     -13.9700      2.00000
     36     -13.9694      2.00000
     37     -13.9692      2.00000
     38     -13.9692      2.00000
     39     -13.9688      2.00000
     40     -12.4451      2.00000
     41     -11.6735      2.00000
     42     -11.6733      2.00000
     43     -11.6728      2.00000
     44     -11.6728      2.00000
     45     -11.6719      2.00000
     46     -11.6716      2.00000
     47     -11.5054      2.00000
     48     -11.5053      2.00000
     49     -11.5047      2.00000
     50     -11.5046      2.00000
     51     -11.5037      2.00000
     52     -11.5036      2.00000
     53     -11.3331      2.00000
     54     -11.1655      2.00000
     55     -11.1648      2.00000
     56     -10.2247      2.00000
     57     -10.1542      2.00000
     58     -10.1540      2.00000
     59     -10.1527      2.00000
     60     -10.1523      2.00000
     61     -10.1521      2.00000
     62     -10.1521      2.00000
     63      -9.1162      2.00000
     64      -9.1148      2.00000
     65      -9.1131      2.00000
     66      -9.1121      2.00000
     67      -9.1104      2.00000
     68      -9.1104      2.00000
     69      -8.9720      2.00000
     70      -8.9712      2.00000
     71      -8.9710      2.00000
     72      -8.9705      2.00000
     73      -8.9700      2.00000
     74      -8.9699      2.00000
     75      -8.9157      2.00000
     76      -8.9156      2.00000
     77      -8.9154      2.00000
     78      -8.9153      2.00000
     79      -8.9146      2.00000
     80      -8.9138      2.00000
     81      -7.6727      2.00000
     82      -7.6720      2.00000
     83      -7.3625      2.00000
     84      -7.3613      2.00000
     85      -7.3609      2.00000
     86      -7.3604      2.00000
     87      -7.3590      2.00000
     88      -7.3589      2.00000
     89      -6.9960      2.00000
     90      -6.9960      2.00000
     91      -6.9959      2.00000
     92      -6.9953      2.00000
     93      -6.9951      2.00000
     94      -6.9949      2.00000
     95      -6.1076      2.00000
     96      -6.1065      2.00000
     97      -6.1062      2.00000
     98      -6.1059      2.00000
     99      -6.1055      2.00000
    100      -6.1050      2.00000
    101      -5.9382      2.00000
    102      -5.9360      2.00000
    103      -4.1410      2.00000
    104      -4.1408      2.00000
    105      -4.1407      2.00000
    106      -4.1402      2.00000
    107      -4.1382      2.00000
    108      -4.1380      2.00000
    109      -1.3554      0.00000
    110      -1.3551      0.00000
    111      -1.3536      0.00000
    112      -1.3533      0.00000
    113      -1.3530      0.00000
    114      -1.3530      0.00000
    115      -0.2531      0.00000
    116       0.3013      0.00000
    117       0.4909      0.00000
    118       0.4917      0.00000
    119       0.4922      0.00000
    120       0.4932      0.00000
    121       0.4933      0.00000
    122       0.4957      0.00000
    123       0.7221      0.00000
    124       0.8619      0.00000
    125       1.0744      0.00000
    126       1.1635      0.00000
    127       1.1817      0.00000
    128       1.2449      0.00000
    129       1.2540      0.00000
    130       1.2640      0.00000
    131       1.2676      0.00000
    132       1.7353      0.00000
    133       2.0171      0.00000
    134       2.0627      0.00000
    135       2.1828      0.00000
    136       2.2031      0.00000


--------------------------------------------------------------------------------------------------------


 soft charge-density along one line, spin component           1
         0         1         2         3         4         5         6         7         8         9
 total charge-density along one line
 
 pseudopotential strength for first ion, spin component:           1
 12.606  21.216   0.000   0.000  -0.000   0.000   0.000  -0.000
 21.216  35.704   0.000   0.000  -0.000   0.000   0.000  -0.000
  0.000   0.000  -3.322  -0.000   0.000  -5.952  -0.000   0.000
  0.000   0.000  -0.000  -3.357  -0.000  -0.000  -6.015  -0.000
 -0.000  -0.000   0.000  -0.000  -3.322   0.000  -0.000  -5.952
  0.000   0.000  -5.952  -0.000   0.000 -10.645  -0.000   0.000
  0.000   0.000  -0.000  -6.015  -0.000  -0.000 -10.755  -0.000
 -0.000  -0.000   0.000  -0.000  -5.952   0.000  -0.000 -10.645
 total augmentation occupancy for first ion, spin component:           1
  6.241  -2.004  -0.000  -0.002  -0.000   0.000   0.001   0.000
 -2.004   0.691   0.000   0.001  -0.000  -0.000  -0.000  -0.000
 -0.000   0.000   5.992  -0.007   0.000  -1.878   0.003  -0.000
 -0.002   0.001  -0.007   2.311  -0.000   0.003  -0.483   0.000
 -0.000  -0.000   0.000  -0.000   5.992  -0.000   0.000  -1.878
  0.000  -0.000  -1.878   0.003  -0.000   0.606  -0.001   0.000
  0.001  -0.000   0.003  -0.483   0.000  -0.001   0.111  -0.000
  0.000  -0.000  -0.000   0.000  -1.878   0.000  -0.000   0.606


------------------------ aborting loop because EDIFF is reached ----------------------------------------


    FORLOC:  cpu time    0.0513: real time    0.0518
    FORNL :  cpu time    0.6790: real time    0.6827
    FORCOR:  cpu time    3.2332: real time    3.2614
    OFIELD:  cpu time    0.0013: real time    0.0014

 VOLUME and BASIS-vectors are now :
 -----------------------------------------------------------------------------
  energy-cutoff  :     1000.00
  volume of cell :     2631.08
      direct lattice vectors                 reciprocal lattice vectors
    12.325000000  0.000000000  0.000000000     0.081135903  0.046843835  0.000000000
    -6.162500000 10.673763102  0.000000000     0.000000000  0.093687670  0.000000000
     0.000000000  0.000000000 20.000000000     0.000000000  0.000000000  0.050000000

  length of vectors
    12.325000000 12.325000000 20.000000000     0.093687670  0.093687670  0.050000000


 FORCES acting on ions:
    Electron-Ion                     Ewald-Force                    Non-Local-Force
 -----------------------------------------------------------------------------------------------
   0.378E+01 0.328E+01 0.186E+02   -.379E+01 -.328E+01 -.186E+02   0.808E-02 -.113E-02 0.776E-02
   0.550E+01 0.268E+01 0.217E+02   -.551E+01 -.268E+01 -.217E+02   0.913E-02 -.439E-02 -.577E-02
   0.236E+01 0.632E+01 0.239E+02   -.236E+01 -.633E+01 -.239E+02   -.934E-03 0.181E-01 0.563E-02
   0.312E+01 0.452E+01 0.305E+02   -.313E+01 -.452E+01 -.305E+02   0.172E-01 0.345E-02 -.133E-02
   0.403E+01 0.958E+00 0.189E+02   -.404E+01 -.955E+00 -.189E+02   0.268E-02 -.806E-02 0.746E-03
   0.414E+01 -.817E+00 0.191E+02   -.414E+01 0.820E+00 -.191E+02   -.639E-02 0.174E-02 -.736E-02
   0.591E+01 0.216E+01 0.287E+02   -.592E+01 -.215E+01 -.286E+02   0.201E-01 -.229E-01 -.116E-02
   0.573E+01 -.205E+01 0.299E+02   -.574E+01 0.206E+01 -.299E+02   0.138E-02 -.104E-01 -.646E-02
   -.282E+01 0.570E+01 0.241E+02   0.283E+01 -.571E+01 -.241E+02   -.573E-02 -.691E-02 -.688E-02
   -.425E+01 0.357E+01 0.299E+02   0.426E+01 -.358E+01 -.299E+02   -.344E-01 0.209E-01 0.777E-02
   0.105E+01 -.104E+01 0.166E+02   -.104E+01 0.104E+01 -.166E+02   0.183E-02 -.208E-02 -.288E-02
   0.908E+00 -.761E+00 0.159E+02   -.905E+00 0.760E+00 -.159E+02   -.939E-02 0.428E-02 0.394E-02
   0.227E+01 -.487E+01 0.321E+02   -.228E+01 0.488E+01 -.321E+02   0.350E-01 -.141E-01 0.312E-02
   0.128E+01 -.634E+01 0.250E+02   -.129E+01 0.635E+01 -.250E+02   0.907E-02 0.127E-02 -.183E-01
   -.364E+01 0.224E+01 0.183E+02   0.364E+01 -.224E+01 -.183E+02   0.703E-02 -.325E-02 0.304E-02
   -.497E+01 0.147E+01 0.198E+02   0.498E+01 -.148E+01 -.198E+02   -.500E-02 0.783E-02 -.982E-02
   -.647E+00 -.255E+00 0.153E+02   0.654E+00 0.252E+00 -.153E+02   -.335E-02 0.143E-02 0.123E-02
   0.300E+00 0.225E+01 0.159E+02   -.297E+00 -.225E+01 -.159E+02   -.507E-02 0.307E-02 0.944E-02
   -.964E+00 -.595E+01 0.214E+02   0.959E+00 0.596E+01 -.214E+02   0.974E-02 -.496E-02 0.154E-02
   -.511E+00 -.337E+01 0.172E+02   0.505E+00 0.337E+01 -.172E+02   0.280E-02 -.347E-02 -.145E-02
   0.550E+01 -.243E+01 0.228E+02   -.550E+01 0.243E+01 -.228E+02   0.198E-02 -.517E-02 -.235E-01
   0.367E+01 -.305E+01 0.200E+02   -.368E+01 0.305E+01 -.200E+02   -.618E-02 0.520E-02 -.767E-02
   -.109E+01 0.207E+01 0.346E+02   0.109E+01 -.207E+01 -.346E+02   -.140E-01 0.139E-01 0.203E-01
   -.148E+01 -.325E+01 0.340E+02   0.148E+01 0.326E+01 -.340E+02   0.143E-01 -.200E-01 0.655E-02
   0.193E+01 -.767E+00 0.167E+02   -.193E+01 0.765E+00 -.167E+02   0.140E-02 -.173E-02 -.677E-02
   0.439E+00 0.170E+01 0.167E+02   -.436E+00 -.170E+01 -.167E+02   -.771E-02 0.491E-02 0.302E-02
   -.637E+01 0.878E+00 0.254E+02   0.639E+01 -.885E+00 -.254E+02   0.408E-02 0.112E-01 -.303E-02
   -.611E+01 -.243E+01 0.241E+02   0.612E+01 0.243E+01 -.241E+02   -.155E-01 0.115E-01 0.431E-02
   0.217E+01 -.436E+01 0.206E+02   -.218E+01 0.436E+01 -.206E+02   0.813E-02 0.920E-03 -.117E-01
   0.189E+00 -.184E+01 0.175E+02   -.193E+00 0.184E+01 -.175E+02   -.310E-02 0.256E-02 -.575E-02
   -.451E+01 -.471E+01 0.273E+02   0.451E+01 0.471E+01 -.273E+02   -.173E-01 -.109E-01 -.327E-02
   -.306E+01 -.567E+01 0.220E+02   0.307E+01 0.568E+01 -.220E+02   0.776E-03 -.675E-02 0.662E-02
   0.253E+00 0.101E+01 0.158E+02   -.256E+00 -.101E+01 -.158E+02   0.747E-02 -.561E-02 0.564E-02
   0.656E+00 0.988E+00 0.165E+02   -.660E+00 -.986E+00 -.165E+02   -.120E-02 0.344E-02 -.371E-02
   -.255E+01 0.404E+00 0.174E+02   0.255E+01 -.406E+00 -.174E+02   0.361E-02 -.151E-02 0.298E-02
   -.226E+01 -.956E+00 0.171E+02   0.226E+01 0.954E+00 -.171E+02   -.700E-02 0.386E-02 0.162E-02
   -.438E+01 -.228E+01 0.188E+02   0.439E+01 0.228E+01 -.188E+02   -.613E-02 0.155E-02 0.328E-02
   -.278E+01 -.222E+01 0.169E+02   0.278E+01 0.222E+01 -.169E+02   -.683E-02 0.152E-02 0.983E-02
   -.254E+01 -.327E+01 0.177E+02   0.254E+01 0.327E+01 -.177E+02   -.548E-02 -.129E-02 0.654E-02
   -.385E+00 -.841E+00 0.160E+02   0.386E+00 0.842E+00 -.160E+02   0.252E-02 -.467E-03 0.831E-02
   0.953E+00 0.237E+01 0.164E+02   -.953E+00 -.237E+01 -.164E+02   -.454E-02 0.391E-02 0.796E-02
   0.295E+01 0.461E+01 0.192E+02   -.295E+01 -.461E+01 -.192E+02   0.250E-02 0.171E-02 0.107E-01
   0.266E+00 0.401E+01 0.174E+02   -.259E+00 -.401E+01 -.174E+02   -.325E-02 0.402E-02 0.113E-02
   -.730E-01 0.630E+01 0.219E+02   0.796E-01 -.631E+01 -.219E+02   -.126E-01 0.618E-02 0.664E-02
   -.756E+00 0.145E+01 0.173E+02   0.758E+00 -.146E+01 -.173E+02   0.294E-02 -.262E-02 -.214E-02
   -.294E+01 0.363E+01 0.194E+02   0.295E+01 -.363E+01 -.194E+02   -.924E-02 0.214E-02 -.617E-02
   -.651E+00 -.168E+01 0.166E+02   0.648E+00 0.168E+01 -.166E+02   0.883E-02 -.225E-02 0.393E-02
   -.152E+01 0.576E+00 0.159E+02   0.152E+01 -.575E+00 -.159E+02   -.157E-02 0.264E-02 -.599E-02
   0.158E+00 -.105E+01 0.159E+02   -.160E+00 0.105E+01 -.159E+02   0.595E-02 -.386E-02 0.603E-02
   0.166E+01 0.119E+01 0.160E+02   -.167E+01 -.119E+01 -.160E+02   0.298E-02 0.994E-03 0.307E-02
   0.223E-01 -.376E-03 -.258E+03   -.241E-01 0.221E-02 0.258E+03   -.295E-02 0.224E-02 -.434E-02
   -.229E+03 0.156E+03 -.399E+03   0.279E+03 -.190E+03 0.402E+03   -.513E+02 0.349E+02 -.346E+01
   0.229E+03 -.156E+03 -.379E+03   -.279E+03 0.190E+03 0.376E+03   0.513E+02 -.349E+02 0.308E+01
 -----------------------------------------------------------------------------------------------
   -.505E-02 0.120E-01 0.356E+00   0.000E+00 0.284E-13 0.455E-12   0.496E-02 -.118E-01 -.357E+00
 
 
 POSITION                                       TOTAL-FORCE (eV/Angst)
 -----------------------------------------------------------------------------------
     11.98348      0.00342      0.01417         0.002833     -0.001408     -0.000762
     -0.34154      1.42665      0.01100        -0.002068      0.000121     -0.003111
      2.12355      0.00315      0.01249        -0.001804      0.008778     -0.005455
      2.12326      1.42653      0.00641         0.011684      0.000326     -0.006070
     10.75099      2.13819      0.01213         0.000375     -0.005103      0.000214
     -1.57382      3.56123      0.01110        -0.008194      0.004840     -0.001429
      0.89078      2.13854      0.00548         0.007791     -0.017677      0.003178
      0.89099      3.56147      0.00181        -0.013128     -0.001521      0.012244
      4.58864      0.00346      0.01135         0.004391     -0.016530     -0.003105
      4.58894      1.42623      0.00646        -0.020409      0.011399      0.014902
      9.51854      4.27281      0.01369         0.006767     -0.003207      0.000303
     -2.80632      5.69591      0.01434        -0.006172      0.003240      0.001024
      2.12300      4.27302      0.00000         0.022269     -0.003497      0.021245
      2.12335      5.69594      0.00581        -0.001534      0.010111     -0.002570
      7.05344      0.00333      0.01399         0.008651     -0.004895     -0.000022
      7.05353      1.42635      0.01368        -0.001230      0.004238     -0.003589
      8.28610      6.40752      0.01601         0.003324     -0.001553     -0.000550
     -4.03885      7.83070      0.01636        -0.002008      0.000899      0.000214
      3.35586      6.40753      0.01007         0.004665      0.000770     -0.001179
      3.35599      7.83072      0.01320        -0.003521      0.000468     -0.000496
     -0.34146      4.27290      0.00723        -0.002342     -0.000786     -0.004555
     -0.34138      5.69591      0.00946        -0.008619      0.005901     -0.001027
      3.35624      2.13791      0.00222        -0.012663      0.010646      0.019182
      3.35573      3.56155      0.00139         0.013038     -0.014111      0.011135
     -1.57395      6.40758      0.01311         0.005796     -0.004115     -0.000577
     -1.57385      7.83068      0.01438        -0.004500      0.003708      0.000349
      5.82093      2.13784      0.01033         0.016980      0.004513     -0.002324
      5.82114      3.56097      0.01156        -0.005069      0.007704     -0.003131
      0.89092      6.40755      0.00907         0.004005      0.002050     -0.002213
      0.89106      7.83068      0.01235        -0.006846      0.003462      0.000374
      4.58871      4.27293      0.00850        -0.011061     -0.005112     -0.009402
      4.58852      5.69606      0.01149         0.001997     -0.000161     -0.003396
      9.51845      0.00337      0.01490         0.004459     -0.004471      0.000473
      9.51855      1.42644      0.01438        -0.005130      0.005547     -0.000215
      8.28593      2.13803      0.01453         0.006206     -0.003536      0.000804
      8.28613      3.56115      0.01464        -0.004117      0.001918      0.000236
      7.05356      4.27269      0.01457         0.003553     -0.001083     -0.000286
      7.05362      5.69588      0.01553        -0.002278      0.001386      0.000207
      5.82112      6.40755      0.01489        -0.002537      0.001903      0.000176
      5.82102      7.83073      0.01579         0.002683      0.000355      0.000021
      7.05363      8.54227      0.01631        -0.004537      0.000870      0.001337
     -5.27149      9.96549      0.01495        -0.000213     -0.002399     -0.001641
     -2.80638      8.54234      0.01558         0.003540     -0.001931     -0.000887
     -2.80627      9.96553      0.01362        -0.005730     -0.000478     -0.003302
     -0.34149      8.54239      0.01378         0.005696     -0.004516      0.000373
     -0.34138      9.96550      0.01354        -0.005180     -0.000046     -0.001055
      2.12343      8.54232      0.01336         0.005524     -0.001507      0.001019
      2.12354      9.96544      0.01469        -0.005511      0.003919     -0.001787
      4.58846      8.54235      0.01505         0.003481     -0.002750      0.001157
      4.58853      9.96550      0.01517        -0.003248      0.003295      0.000426
      3.04930      2.68154      5.29732        -0.004651      0.003994      0.019294
      4.02070      2.02068      5.36174        -0.482140      0.327642     -0.052875
      2.07767      3.34267      5.23786         0.486731     -0.331612      0.007124
 -----------------------------------------------------------------------------------
    total drift:                               -0.000090      0.000128     -0.001509


--------------------------------------------------------------------------------------------------------



  FREE ENERGIE OF THE ION-ELECTRON SYSTEM (eV)
  ---------------------------------------------------
  free  energy   TOTEN  =      -393.63488420 eV

  energy  without entropy=     -393.63488420  energy(sigma->0) =     -393.63488420
 


--------------------------------------------------------------------------------------------------------


    POTLOK:  cpu time    3.2171: real time    3.2416


--------------------------------------------------------------------------------------------------------


     LOOP+:  cpu time  213.2252: real time  215.6633
    4ORBIT:  cpu time    0.0000: real time    0.0000

 total amount of memory used by VASP MPI-rank0    85439. kBytes
=======================================================================

   base      :      30000. kBytes
   nonl-proj :       6586. kBytes
   fftplans  :      14299. kBytes
   grid      :      23511. kBytes
   one-center:          6. kBytes
   wavefun   :      11037. kBytes
 
  
  
 General timing and accounting informations for this job:
 ========================================================
  
                  Total CPU time used (sec):      247.326
                            User time (sec):      227.976
                          System time (sec):       19.350
                         Elapsed time (sec):      251.145
  
                   Maximum memory used (kb):      678916.
                   Average memory used (kb):          N/A
  
                          Minor page faults:       369028
                          Major page faults:          114
                 Voluntary context switches:         3715
